   This run of MOLCAS is using the pymolcas driver

                             OPE
                             OPE          NMOL  CASOP  ENMOLC A   SO
                 OPE        NMOLC        AS  OP EN  MO LC     AS  OP
                OPENM       OL CA        SO  PE NM  OL CA     SOP EN
                OP EN      MO   LC       AS  OP ENMOL  CASO   PENMOL
                OP  EN     MO   LC       AS  OP EN     MO     LC ASO
               OP   E  NMOL  C  AS       OP  EN MO     LC     AS  OP
               OP  E   NMO   LC AS        OPEN  MO     LCASOP EN   M
               O  PEN   MO  LCA  SO
            OPE   NMO   L   CAS    OP
        OPENMOL  CASOP     ENMOL   CASOPE
     OPENMOLCA   SOPENMOLCASOPEN   MOLCASOPE
    OPENMOLCAS   OP           EN   MOL    CAS
    OPENMOLCAS       OP  ENM        O     LCA
    OPENMOLCAS    OPEN  MOLCASO     P  E  NMO
    OPENMOLCAS     OP               E  N  MOL
    OPENMOLCA   SO           PENM   O  L  CAS    OPEN    MO    LCAS
    OPENMOLCA   SOP           ENM   O  L  CAS   OP  EN  MOLC  AS   O
    OPENMOLCA   SOPE           NM      O  LCA   S      OP  EN MO
    OPENMOLC                AS         O  PEN   M      OL  CA  SOPE
    OPENMO        LCASOPE  NMOL        C  ASO   P      ENMOLC     AS
    OPE     NMO      LCA  SO     P     E   NM   OL  CA SO  PE N   MO
          OPENMOLCA            SOPE   NMO        LCAS  O    P  ENMO
     OPENMOLCASOPENMOLCASOPENMOLCASOPENMOLCA
        OPENMOLCASOPENMOLCASOPENMOLCASOPE
            OPENMOLCASOPENMOLCASOPENM
               OPENMOLCASOPENMOLCA        version: v23.10 ?
                   OPENMOLCASO
                       OPE                tag:

 OpenMolcas is free software; you can redistribute it and/or modify it
 under the terms of the GNU Lesser General Public License version 2.1.
 OpenMolcas is distributed in the hope that it will be useful, but it
 is provided "as is" and without any express or implied warranties.
 For more details see the full text of the license in the file
 LICENSE or in <http://www.gnu.org/licenses/>.

                 Copyright (C) The OpenMolcas Authors
           For the author list and the recommended citation,
                   consult the file CONTRIBUTORS.md

           *************************************************
           * pymolcas version py2.25                       *
           *   build 2b27fa14244bdc32cb1957e6230cd793      *
           *   (after the EMIL interpreter by V. Veryazov) *
           *************************************************

configuration info
------------------
Host name: cpn-h22-29.core.ccr.buffalo.edu (Linux)
C Compiler ID: Intel
C flags: -O2 -xCore-AVX512 -ftz -fp-speculation=safe -fp-model source -std=gnu99 -gcc-sys -qopenmp
Fortran Compiler ID: Intel
Fortran flags: -O2 -xCore-AVX512 -ftz -fp-speculation=safe -fp-model source  -fpp -i8 -heap-arrays -qopenmp
Definitions: _MOLCAS_;_I8_;_LINUX_;_MOLCAS_MPP_;_SCALAPACK_;_GA_
Parallel: ON (GA=ON)


   -----------------------------------------------------------------------------------------------------------------------------------------------------
  |
  |           Project: relaxed_scan_tbhp_casscf
  |    Submitted from: /vscratch/grp-cyberwksp21/hclifford/openmolcas/PES/runs_relaxed_s1/R_1p45
  |      Scratch area: /vscratch/grp-cyberwksp21/hclifford/openmolcas/PES/runs_relaxed_s1/R_1p45/molcas_scratch_R_1p45/relaxed_scan_tbhp_casscf
  |   Save outputs to: /vscratch/grp-cyberwksp21/hclifford/openmolcas/PES/runs_relaxed_s1/R_1p45
  |            Molcas: /cvmfs/soft.ccr.buffalo.edu/versions/2023.01/easybuild/software/avx512/MPI/intel/2022.0.1/impi/2021.5.0/openmolcas/23.10
  |
  | Scratch area is empty
  |
  |    MOLCAS_DRIVER = /cvmfs/soft.ccr.buffalo.edu/versions/2023.01/easybuild/software/avx512/MPI/intel/2022.0.1/impi/2021.5.0/openmolcas/23.10/pymolcas
  |    MOLCAS_MOLDEN = ON
  |    MOLCAS_NPROCS = 1
  |     MOLCAS_PRINT = NORMAL
  |    MOLCAS_SOURCE = /cvmfs/soft.ccr.buffalo.edu/versions/2023.01/easybuild/software/avx512/MPI/intel/2022.0.1/impi/2021.5.0/openmolcas/23.10
  | MOLCAS_STRUCTURE = 0
  |
   -----------------------------------------------------------------------------------------------------------------------------------------------------

++ ---------   Input file   ---------

&GATEWAY
  Coord = tbhp.xyz
  Basis = cc-pVDZ
  Group = NoSymm
  Constraints
    rOO = Bond O1 O2
  Values
    rOO = 1.45 Angstrom
  End of Constraints

>>> DO WHILE

  &SEWARD

  &RASSCF
    Spin = 1
    NActEl = 6 0 0
    Inactive = 22
    Ras2 = 4
    CiRoot = 4 4 1
    RlxRoot = 2
    LumOrb
    LevShift = 1.0

  &ALASKA

  &SLAPAF

>>> END DO

-- ----------------------------------

--- Start Module: gateway at Wed Jul  8 11:27:42 2026 ---
 
()()()()()()()()()()()()()()()()()()()()()()()()()()()()()()()()()()()()()()()()()()()()()()()()()()

                                              &GATEWAY

                       only a single process is used, running in SERIAL mode
                        available to each process: 12 GB of memory, 1 thread
                                            pid: 227076
()()()()()()()()()()()()()()()()()()()()()()()()()()()()()()()()()()()()()()()()()()()()()()()()()()
 
 
++    Symmetry information:
      ---------------------
 
                    Character Table for C1 
 
                             E  
                    a        1  x, y, xy, Rz, z, xz, Ry, yz, Rx, I
--
 
 
++    Basis set information:
      ----------------------
 
 
      Basis set label: C.CC-PVDZ.........
 
      Electronic valence basis set:
      ------------------
      Associated Effective Charge   6.000000 au
      Associated Actual Charge      6.000000 au
      Nuclear Model: Point charge
 
      Shell  nPrim  nBasis  Cartesian Spherical Contaminant
         s       9       3        X                  
         p       4       2        X                  
         d       1       1                 X         
 
 
      Basis set label: H.CC-PVDZ.........
 
      Electronic valence basis set:
      ------------------
      Associated Effective Charge   1.000000 au
      Associated Actual Charge      1.000000 au
      Nuclear Model: Point charge
 
      Shell  nPrim  nBasis  Cartesian Spherical Contaminant
         s       4       2        X                  
         p       1       1        X                  
 
 
      Basis set label: O.CC-PVDZ.........
 
      Electronic valence basis set:
      ------------------
      Associated Effective Charge   8.000000 au
      Associated Actual Charge      8.000000 au
      Nuclear Model: Point charge
 
      Shell  nPrim  nBasis  Cartesian Spherical Contaminant
         s       9       3        X                  
         p       4       2        X                  
         d       1       1                 X         
 
 
      Basis set label: H.CC-PVDZ.........
 
      Electronic valence basis set:
      ------------------
      Associated Effective Charge   1.000000 au
      Associated Actual Charge      1.000000 au
      Nuclear Model: Point charge
 
      Shell  nPrim  nBasis  Cartesian Spherical Contaminant
         s       4       2        X                  
         p       1       1        X                  
 
 
      Basis set label: C.CC-PVDZ.........
 
      Electronic valence basis set:
      ------------------
      Associated Effective Charge   6.000000 au
      Associated Actual Charge      6.000000 au
      Nuclear Model: Point charge
 
      Shell  nPrim  nBasis  Cartesian Spherical Contaminant
         s       9       3        X                  
         p       4       2        X                  
         d       1       1                 X         
 
 
      Basis set label: H.CC-PVDZ.........
 
      Electronic valence basis set:
      ------------------
      Associated Effective Charge   1.000000 au
      Associated Actual Charge      1.000000 au
      Nuclear Model: Point charge
 
      Shell  nPrim  nBasis  Cartesian Spherical Contaminant
         s       4       2        X                  
         p       1       1        X                  
 
 
      Basis set label: C.CC-PVDZ.........
 
      Electronic valence basis set:
      ------------------
      Associated Effective Charge   6.000000 au
      Associated Actual Charge      6.000000 au
      Nuclear Model: Point charge
 
      Shell  nPrim  nBasis  Cartesian Spherical Contaminant
         s       9       3        X                  
         p       4       2        X                  
         d       1       1                 X         
 
 
      Basis set label: H.CC-PVDZ.........
 
      Electronic valence basis set:
      ------------------
      Associated Effective Charge   1.000000 au
      Associated Actual Charge      1.000000 au
      Nuclear Model: Point charge
 
      Shell  nPrim  nBasis  Cartesian Spherical Contaminant
         s       4       2        X                  
         p       1       1        X                  
--
 
 
++    Molecular structure info:
      -------------------------
 
                    ************************************************ 
                    **** Cartesian Coordinates / Bohr, Angstrom **** 
                    ************************************************ 
 
     Center  Label                x              y              z                     x              y              z
        1      C1              -0.021542       0.141236      -0.863799             -0.011400       0.074739      -0.457103
        2      C2               0.831168       2.894138      -0.976131              0.439835       1.531512      -0.516547
        3      H3               0.063091       3.973818       0.597379              0.033386       2.102854       0.316120
        4      H4               2.889618       3.006368      -0.897928              1.529120       1.590901      -0.475163
        5      O1               1.048443      -1.087412       1.282909              0.554812      -0.575434       0.678886
        6      O2               0.059331       0.169549       3.507739              0.031396       0.089721       1.856216
        7      H7               1.263745      -0.351457       4.767996              0.668745      -0.185983       2.523115
        8      C8               1.105388      -1.375518      -3.048072              0.584946      -0.727893      -1.612970
        9      H9               0.556259      -3.358152      -2.914267              0.294360      -1.777058      -1.542164
       10      H10              3.164481      -1.268188      -3.022044              1.674571      -0.671096      -1.599197
       11      H11              0.434286      -0.629140      -4.848329              0.229814      -0.332927      -2.565625
       12      C12             -2.895285      -0.095819      -0.822797             -1.532119      -0.050705      -0.435405
       13      H13             -3.445010      -2.076354      -0.655641             -1.823021      -1.098759      -0.346950
       14      H14             -3.697104       0.662660      -2.566952             -1.956423       0.350665      -1.358373
       15      H15             -3.702320       0.934206       0.764700             -1.959183       0.494360       0.404662
       16      H16              0.198038       3.766686      -2.736247              0.104797       1.993244      -1.447959
 
                    ************************************************* 
                    **** InterNuclear Distances / Bohr, Angstrom **** 
                    ************************************************* 
 
     Atom centers         Bohr        Angstrom
    7 H7        6 O2      1.819425        0.962798
    3 H3        2 C2      2.057082        1.088561
   15 H15      12 C12     2.057280        1.088666
   11 H11       8 C8      2.061161        1.090720
    9 H9        8 C8      2.061622        1.090963
   10 H10       8 C8      2.062053        1.091191
   13 H13      12 C12     2.062197        1.091268
    4 H4        2 C2      2.062990        1.091687
   14 H14      12 C12     2.064025        1.092235
   16 H16       2 C2    
    5 O1        1 C1      2.694958        1.426110
    6 O2        5 O1      2.740103        1.450000
   12 C12       1 C1      2.883795        1.526039
    2 C2        1 C1      2.884130        1.526216
    8 C8        1 C1      2.888177        1.528357
   15 H15      13 H13     3.338719        1.766774
    4 H4        3 H3      3.340833        1.767893
   15 H15      14 H14     3.342704        1.768883
   16 H16       3 H3      3.342780        1.768923
   10 H10       9 H9      3.344008        1.769573
   11 H11      10 H10     3.346292        1.770781
   16 H16       4 H4      3.346954        1.771132
   11 H11       9 H9      3.347086        1.771202
   14 H14      13 H13     3.349457        1.772456
    7 H7        5 O1      3.568447        1.888341
   11 H11       1 C1      4.083839        2.161075
   13 H13       1 C1      4.084258        2.161296
   14 H14       1 C1      4.084405        2.161374
    4 H4        1 C1      4.084728        2.161545
   16 H16       1 C1      4.086339        2.162397
    9 H9        1 C1      4.096827        2.167948
   10 H10       1 C1      4.098200        2.168674
   15 H15       1 C1      4.102308        2.170848
    3 H3        1 C1      4.102547        2.170974
    8 C8        5 O1      4.340927        2.297119
    6 O2        1 C1      4.372378        2.313763
   12 C12       5 O1      4.579328        2.423276
    5 O1        2 C2      4.582926        2.425180
   15 H15       6 O2      4.717942        2.496627
   12 C12       8 C8      4.753406        2.515394
    8 C8        2 C2      4.753746        2.515574
   13 H13       9 H9      4.770174        2.524267
   12 C12       2 C2      4.780148        2.529545
   10 H10       4 H4      4.781134        2.530067
    6 O2        3 H3      4.789851        2.534680
    9 H9        5 O1      4.797374        2.538661
   10 H10       5 O1      4.800304        2.540212
   15 H15       3 H3      4.842061        2.562308
   16 H16      11 H11     4.882622        2.583772
   14 H14      11 H11     4.893037        2.589284
   16 H16      14 H14     4.983550        2.637181
    5 O1        4 H4      4.990492        2.640855
   13 H13       5 O1      4.992705        2.642026
   13 H13       8 C8      5.188547        2.745661
   15 H15       5 O1      5.188952        2.745875
   12 C12       9 H9      5.189434        2.746130
   10 H10       2 C2      5.191827        2.747397
    8 C8        4 H4      5.196876        2.750068
    5 O1        3 H3      5.201626        2.752582
   12 C12       3 H3      5.227890        2.766480
   16 H16       8 C8      5.230945        2.768097
   15 H15       2 C2      5.236825        2.771209
   14 H14       8 C8      5.239235        2.772484
   12 C12       6 O2      5.249163        2.777738
   11 H11       2 C2      5.250231        2.778302
   12 C12      11 H11     5.251227        2.778830
   14 H14       2 C2      5.292963        2.800915
    6 O2        2 C2      5.303227        2.806347
   16 H16      12 C12     5.305553        2.807577
--
 
 
            Nuclear Potential Energy            271.37507945 au
 
--- Stop Module: gateway at Wed Jul  8 11:27:44 2026 /rc=_RC_ALL_IS_WELL_ ---
*** files: xmldump
    saved to directory /vscratch/grp-cyberwksp21/hclifford/openmolcas/PES/runs_relaxed_s1/R_1p45
--- Module gateway spent 1 second ---

--- Start Module: seward at Wed Jul  8 11:27:44 2026 ---
 
()()()()()()()()()()()()()()()()()()()()()()()()()()()()()()()()()()()()()()()()()()()()()()()()()()

                                              &SEWARD

                       only a single process is used, running in SERIAL mode
                        available to each process: 12 GB of memory, 1 thread
                                            pid: 227080
()()()()()()()()()()()()()()()()()()()()()()()()()()()()()()()()()()()()()()()()()()()()()()()()()()
 
               SEWARD will generate:
                  Multipole Moment integrals up to order  2
                  Kinetic Energy integrals
                  Nuclear Attraction integrals (point charge)
                  One-Electron Hamiltonian integrals
                  Velocity integrals
                  Orbital angular momentum around ( 0.0407  0.0975 -0.0389 )
                  Velocity quadrupole around ( 0.0407  0.0975 -0.0389 )
                  Two-Electron Repulsion integrals
 
                   Integrals are discarded if absolute value <: 0.10E-13
                   Integral cutoff threshold is set to       <: 0.10E-15
 
            Nuclear Potential Energy            271.37507945 au
 
 
      Basis set specifications :
      Symmetry species         a  
      Basis functions          134
 
 
      Input file to MOLDEN was generated!
 
--- Stop Module: seward at Wed Jul  8 11:28:02 2026 /rc=_RC_ALL_IS_WELL_ ---
*** files: relaxed_scan_tbhp_casscf.GssOrb relaxed_scan_tbhp_casscf.guessorb.h5 relaxed_scan_tbhp_casscf.guessorb.molden xmldump
    saved to directory /vscratch/grp-cyberwksp21/hclifford/openmolcas/PES/runs_relaxed_s1/R_1p45
--- Module seward spent 18 seconds ---

*** symbolic link created: INPORB -> relaxed_scan_tbhp_casscf.GssOrb
--- Start Module: rasscf at Wed Jul  8 11:28:02 2026 ---
 
()()()()()()()()()()()()()()()()()()()()()()()()()()()()()()()()()()()()()()()()()()()()()()()()()()

                                              &RASSCF

                       only a single process is used, running in SERIAL mode
                        available to each process: 12 GB of memory, 1 thread
                                            pid: 227087
()()()()()()()()()()()()()()()()()()()()()()()()()()()()()()()()()()()()()()()()()()()()()()()()()()
 
 
      Header of the ONEINT file:
      --------------------------
      
      Integrals generated by Gateway/Seward, Wed Jul  8 11:27:44 2026
 
 
      OrdInt status: non-squared
 
 
      Cartesian coordinates in Angstrom:
      -----------------------------------------------------
      No.  Label        X            Y            Z        
      -----------------------------------------------------
       1   C1        -0.01139969   0.07473874  -0.45710275
       2   C2         0.43983524   1.53151203  -0.51654652
       3   H3         0.03338615   2.10285377   0.31611957
       4   H4         1.52912019   1.59090129  -0.47516326
       5   O1         0.55481218  -0.57543356   0.67888606
       6   O2         0.03139637   0.08972127   1.85621564
       7   H7         0.66874488  -0.18598325   2.52311476
       8   C8         0.58494633  -0.72789299  -1.61297035
       9   H9         0.29435984  -1.77705775  -1.54216375
      10   H10        1.67457144  -0.67109611  -1.59919702
      11   H11        0.22981418  -0.33292659  -2.56562545
      12   C12       -1.53211881  -0.05070542  -0.43540531
      13   H13       -1.82302072  -1.09875916  -0.34695030
      14   H14       -1.95642321   0.35066475  -1.35837253
      15   H15       -1.95918318   0.49436032   0.40466163
      16   H16        0.10479738   1.99324446  -1.44795932
      -----------------------------------------------------
      Nuclear repulsion energy =  271.37507945
 
++    Wave function specifications:
      -----------------------------
 
      Number of closed shell electrons          44
      Number of electrons in active shells       6
      Max number of holes in RAS1 space          0
      Max nr of electrons in RAS3 space          0
      Number of inactive orbitals               22
      Number of active orbitals                  4
      Number of secondary orbitals             108
      Spin quantum number                      0.0
      State symmetry                             1
--
 
++    Orbital specifications:
      -----------------------
 
      Symmetry species                           1
                                                 a
      Frozen orbitals                            0
      Inactive orbitals                         22
      Active orbitals                            4
      RAS1 orbitals                              0
      RAS2 orbitals                              4
      RAS3 orbitals                              0
      Secondary orbitals                       108
      Deleted orbitals                           0
      Number of basis functions                134
--
 
++    CI expansion specifications:
      ----------------------------
 
      Number of CSFs                            10
      Number of determinants                    10
      Number of root(s) required                 4
      Root chosen for geometry opt.              2
      CI roots used                              1     2     3     4
      weights                                0.250 0.250 0.250 0.250
      highest root included in the CI            4
      max. size of the explicit Hamiltonian     10
--
 
++    Optimization specifications:
      ----------------------------
 
      RASSCF algorithm: Conventional
      Maximum number of macro iterations       200
      Maximum number of SX iterations          100
      Threshold for RASSCF energy            0.100E-07
      Threshold for max MO rotation          0.100E+00
      Threshold for max BLB element          0.100E-03
      Level shift parameter                  0.100E+01
      Make Quasi-Newton update
--
 
      The MO-coefficients are taken from the file:
      INPORB                                                                                                                                                                                                                                                          
      Title:Guess orbitals                                                                 
 
      Total molecular charge    0.00
 
      ************************************************************************************************************************
      *                                                                                                                      *
      *                                            Wave function control section                                             *
      *                                                                                                                      *
      ************************************************************************************************************************
 
 
                                         RASSCF iterations: Energy and convergence statistics
                                         ----------------------------------------------------
 
      Iter CI   SX   CI       RASSCF       Energy    max ROT     max BLB   max BLB  Level Ln srch  Step   QN   Walltime
          iter iter root      energy       change     param      element    value   shift minimum  type update hh:mm:ss
 Nr of preliminary CI iterations:   1
        1   1  100    0  -305.98200774    0.00E+00  -0.92E-01   22  27 1 -0.27E+00*  0.66   0.00    SX    NO    0:00:04
        2   1   31    0  -306.53444198   -0.55E+00*  0.41E-01   10  39 1  0.90E-01*  0.74   0.00    SX    NO    0:00:01
        3   1   31    0  -306.62496277   -0.91E-01*  0.35E-01   22  27 1 -0.58E-01*  0.76   0.00    SX    NO    0:00:01
        4   1   18    0  -306.64902836   -0.24E-01*  0.30E-01   10  39 1  0.22E-01*  0.76   0.00    SX    NO    0:00:01
        5   1    9    0  -306.65679511   -0.78E-02*  0.36E-01   10  39 1  0.12E-01*  0.76   2.50    LS   YES    0:00:01
        6   1    9    0  -306.66164711   -0.49E-02*  0.39E-01   22  24 1  0.64E-02*  0.75   1.43    QN   YES    0:00:01
        7   1    9    0  -306.66421663   -0.26E-02*  0.86E-01   22  27 1  0.76E-02*  0.75   2.50    QN   YES    0:00:01
        8   1    9    0  -306.66871287   -0.45E-02* -0.10E+00*  22  27 1  0.14E-01*  0.75   2.19    QN   YES    0:00:01
        9   1    9    0  -306.67275125   -0.40E-02* -0.10E+00*  22  27 1  0.15E-01*  0.76   1.97    QN   YES    0:00:01
       10   1   18    0  -306.67612959   -0.34E-02* -0.11E+00*  22  27 1  0.13E-01*  0.75   1.92    QN   YES    0:00:01
       11   1   11    0  -306.67957293   -0.34E-02* -0.12E+00*  18  27 1 -0.91E-02*  0.75   1.77    QN   YES    0:00:01
       12   1    9    0  -306.68365973   -0.41E-02* -0.88E-01   22  25 1  0.10E-01*  0.76   1.50    QN   YES    0:00:01
       13   1   15    0  -306.68792326   -0.43E-02* -0.65E-01   22  25 1  0.12E-01*  0.76   1.69    QN   YES    0:00:01
       14   1   15    0  -306.69240521   -0.45E-02*  0.77E-01   10  39 1  0.11E-01*  0.76   1.82    QN   YES    0:00:01
       15   1   12    0  -306.69640490   -0.40E-02* -0.73E-01   22  27 1 -0.11E-01*  0.75   1.84    QN   YES    0:00:01
       16   1   12    0  -306.69958780   -0.32E-02* -0.46E-01   22  27 1 -0.91E-02*  0.75   1.75    QN   YES    0:00:01
       17   1   10    0  -306.70159699   -0.20E-02*  0.21E-01   22  27 1 -0.45E-02*  0.75   1.62    QN   YES    0:00:01
       18   1    9    0  -306.70248059   -0.88E-03*  0.14E-01   26  27 1  0.34E-02*  0.75   1.49    QN   YES    0:00:01
       19   1    9    0  -306.70281684   -0.34E-03*  0.14E-01   26  27 1  0.22E-02*  0.74   1.56    QN   YES    0:00:01
       20   1    9    0  -306.70301624   -0.20E-03* -0.20E-01   14  24 1 -0.15E-02*  0.74   1.60    QN   YES    0:00:01
       21   1    9    0  -306.70329108   -0.27E-03* -0.12E+00*  14  24 1 -0.33E-02*  0.72   2.50    QN   YES    0:00:01
       22   1   26    0  -306.70400822   -0.72E-03*  0.33E-01   14  24 1 -0.12E-01*  0.68   0.68    QN   YES    0:00:01
       23   1   23    0  -306.70675152   -0.27E-02*  0.14E+00*  14  24 1 -0.12E-01*  0.67   1.68    QN   YES    0:00:01
       24   1   12    0  -306.71595570   -0.92E-02*  0.24E+00*  24 133 1  0.11E-01*  0.68   2.33    QN   YES    0:00:01
       25   1   11    0  -306.72596828   -0.10E-01* -0.52E-01   14  26 1 -0.13E-01*  0.69   1.14    QN   YES    0:00:01
       26   1   13    0  -306.72923213   -0.33E-02* -0.55E-01   14  26 1 -0.11E-01*  0.69   1.88    QN   YES    0:00:01
       27   1   10    0  -306.73181208   -0.26E-02*  0.23E-01   14  26 1 -0.55E-02*  0.68   1.51    QN   YES    0:00:01
       28   1    9    0  -306.73269332   -0.88E-03* -0.19E-01   12  23 1 -0.26E-02*  0.68   1.19    QN   YES    0:00:01
       29   1    9    0  -306.73289235   -0.20E-03* -0.74E-02   26  28 1 -0.15E-02*  0.68   1.23    QN   YES    0:00:01
       30   1    8    0  -306.73295602   -0.64E-04* -0.47E-02   14  26 1  0.99E-03*  0.68   1.55    QN   YES    0:00:01
       31   1    8    0  -306.73298184   -0.26E-04* -0.25E-02   22  26 1  0.64E-03*  0.68   1.34    QN   YES    0:00:01
       32   1    8    0  -306.73298948   -0.76E-05*  0.20E-02   26  27 1  0.33E-03*  0.68   1.41    QN   YES    0:00:01
       33   1    7    0  -306.73299312   -0.36E-05* -0.10E-02   26  27 1  0.37E-03*  0.68   1.32    QN   YES    0:00:01
       34   1    7    0  -306.73299493   -0.18E-05*  0.78E-03   26  27 1  0.29E-03*  0.68   1.55    QN   YES    0:00:01
       35   1    7    0  -306.73299591   -0.98E-06*  0.52E-03   26  27 1  0.16E-03*  0.68   1.42    QN   YES    0:00:01
       36   1    6    0  -306.73299622   -0.30E-06*  0.16E-03   26  27 1  0.77E-04   0.68   1.41    QN   YES    0:00:01
       37   1    6    0  -306.73299630   -0.88E-07*  0.10E-03   26  27 1  0.32E-04   0.68   1.45    QN   YES    0:00:01
       38   1    6    0  -306.73299633   -0.31E-07*  0.89E-04   22  26 1  0.19E-04   0.68   1.54    QN   YES    0:00:01
       39   1    6    0  -306.73299635   -0.15E-07* -0.80E-04   22  26 1  0.14E-04   0.68   1.61    QN   YES    0:00:01
       40   1    5    0  -306.73299636   -0.90E-08   0.66E-04   26  27 1 -0.14E-04   0.68   1.66    QN   YES    0:00:01
      Convergence after 40 iterations
       41   1    5    0  -306.73299636   -0.56E-08   0.66E-04   26  27 1 -0.16E-04   0.68   1.66    QN   YES    0:00:01
 
      ************************************************************************************************************************
                                                      Wave function printout:
                       occupation of active orbitals, and spin coupling of open shells (u,d: Spin up or down)
      ************************************************************************************************************************
 
      Note: transformation to natural orbitals
      has been made, which may change the order of the CSFs.
 
      printout of CI-coefficients larger than  0.05 for root  1
      energy=    -306.971191
      conf/sym  1111     Coeff  Weight
             1  2220  -0.98020 0.96080
             8  2022   0.19151 0.03668
 
      printout of CI-coefficients larger than  0.05 for root  2
      energy=    -306.758405
      conf/sym  1111     Coeff  Weight
             5  2ud2   0.26257 0.06894
             6  u22d   0.96323 0.92781
 
      printout of CI-coefficients larger than  0.05 for root  3
      energy=    -306.645618
      conf/sym  1111     Coeff  Weight
             2  22ud   0.90617 0.82115
             9  ud22   0.42123 0.17743
 
      printout of CI-coefficients larger than  0.05 for root  4
      energy=    -306.556771
      conf/sym  1111     Coeff  Weight
             3  2202  -0.46374 0.21505
            10  0222   0.88497 0.78316
 
      Natural orbitals and occupation numbers for root  1
      sym 1:   1.997209   1.926456   1.999685   0.076650
 
      Natural orbitals and occupation numbers for root  2
      sym 1:   1.071858   1.932787   1.929614   1.065742
 
      Natural orbitals and occupation numbers for root  3
      sym 1:   1.821887   1.825181   1.180201   1.172731
 
      Natural orbitals and occupation numbers for root  4
      sym 1:   0.432107   1.999449   1.569645   1.998799
 
      ************************************************************************************************************************
      *                                                                                                                      *
      *                                                    Final results                                                     *
      *                                                                                                                      *
      ************************************************************************************************************************
 
 
++    Wave function specifications:
      -----------------------------
 
      Number of closed shell electrons          44
      Number of electrons in active shells       6
      Max number of holes in RAS1 space          0
      Max nr of electrons in RAS3 space          0
      Number of inactive orbitals               22
      Number of active orbitals                  4
      Number of secondary orbitals             108
      Spin quantum number                      0.0
      State symmetry                             1
--
 
++    Orbital specifications:
      -----------------------
 
      Symmetry species                           1
                                                 a
      Frozen orbitals                            0
      Inactive orbitals                         22
      Active orbitals                            4
      RAS1 orbitals                              0
      RAS2 orbitals                              4
      RAS3 orbitals                              0
      Secondary orbitals                       108
      Deleted orbitals                           0
      Number of basis functions                134
--
 
++    CI expansion specifications:
      ----------------------------
 
      Number of CSFs                            10
      Number of determinants                    10
      Number of root(s) required                 4
      CI roots used                              1     2     3     4
      weights                                0.250 0.250 0.250 0.250
      highest root included in the CI            4
      Root passed to geometry opt.               2
--
 
++    Final optimization conditions:
      ------------------------------
 
      Average CI energy                            -306.73299636
      RASSCF energy for state  2                   -306.75840513
      Super-CI energy                                -0.00000000
      RASSCF energy change                           -0.00000001
      Max change in MO coefficients               0.729E-04
      Max non-diagonal density matrix element     0.664E-04
      Maximum BLB matrix element                 -0.155E-04
      (orbital pair  26,  27 in symmetry   1)
      Norm of electronic gradient            0.597E-01
--
 
 
      Final state energy(ies):
      ------------------------
 
::    RASSCF root number  1 Total energy:   -306.97119089
::    RASSCF root number  2 Total energy:   -306.75840513
::    RASSCF root number  3 Total energy:   -306.64561814
::    RASSCF root number  4 Total energy:   -306.55677130
 
++    Molecular orbitals:
      -------------------
 
      Pseudonatural active orbitals and approximate occupation numbers
 
 
 
 
      Molecular orbitals for symmetry species 1: a  
 
 
      Orbital                 1         2         3         4         5         6         7         8         9        10
      Energy           -20.5694  -20.5576  -11.2818  -11.2201  -11.2178  -11.2147   -1.4090   -1.2226   -1.0464   -0.9397
      Occ. No.           2.0000    2.0000    2.0000    2.0000    2.0000    2.0000    2.0000    2.0000    2.0000    2.0000
 
     1 C1     1s        -0.0001   -0.0002   -1.0021    0.0049   -0.0048   -0.0045   -0.0049   -0.0116   -0.0167   -0.0001
     2 C1     2s        -0.0004   -0.0007   -0.0106   -0.0003    0.0004    0.0005    0.2147    0.3198    0.3845    0.0041
     3 C1     *s         0.0005    0.0045    0.0173   -0.0006    0.0005    0.0003   -0.1036   -0.0769    0.0135    0.0006
     4 C1     2px        0.0000    0.0002   -0.0003   -0.0001   -0.0003    0.0001    0.0382    0.0492   -0.0712   -0.1866
     5 C1     *px       -0.0002    0.0012   -0.0005   -0.0006   -0.0007    0.0004   -0.0160   -0.0270    0.0068    0.0073
     6 C1     2py       -0.0001   -0.0002    0.0003   -0.0003    0.0000   -0.0002   -0.0434   -0.0572    0.0842   -0.1710
     7 C1     *py        0.0003   -0.0015    0.0007   -0.0006   -0.0005   -0.0005    0.0157    0.0351   -0.0074    0.0066
     8 C1     2pz       -0.0001    0.0005   -0.0009    0.0000    0.0000   -0.0003    0.0940    0.0702   -0.1347   -0.0068
     9 C1     *pz        0.0012    0.0016    0.0006   -0.0004    0.0003   -0.0004   -0.0521   -0.0180    0.0212    0.0001
    10 C1     *d2-      -0.0001    0.0000    0.0000    0.0001   -0.0000    0.0001   -0.0067   -0.0058    0.0082   -0.0067
    11 C1     *d1-      -0.0001   -0.0000   -0.0000   -0.0000   -0.0000   -0.0001   -0.0117   -0.0115    0.0144    0.0016
    12 C1     *d0        0.0000    0.0002   -0.0001   -0.0001    0.0001   -0.0000    0.0056    0.0070   -0.0126    0.0014
    13 C1     *d1+       0.0001    0.0000   -0.0000   -0.0001   -0.0000    0.0001    0.0099    0.0101   -0.0127   -0.0025
    14 C1     *d2+      -0.0000    0.0000    0.0000   -0.0001   -0.0001    0.0000   -0.0009   -0.0009    0.0011    0.0247
    15 C2     1s         0.0000   -0.0001   -0.0048   -1.0019    0.0035    0.0014   -0.0011   -0.0018   -0.0120    0.0174
    16 C2     2s        -0.0000   -0.0002    0.0004   -0.0104   -0.0006   -0.0007    0.0467    0.0999    0.3719   -0.5594
    17 C2     *s        -0.0003    0.0000   -0.0041    0.0123    0.0015    0.0014   -0.0124   -0.0498   -0.1434    0.1712
    18 C2     2px        0.0000    0.0000    0.0001   -0.0000    0.0001   -0.0001   -0.0058   -0.0075   -0.0328   -0.0213
    19 C2     *px        0.0001   -0.0002    0.0005   -0.0003   -0.0009    0.0002    0.0003    0.0056    0.0183    0.0075
    20 C2     2py        0.0000    0.0002    0.0003   -0.0002    0.0000    0.0001   -0.0290   -0.0437   -0.0668    0.0034
    21 C2     *py       -0.0001   -0.0000    0.0015   -0.0009   -0.0004   -0.0007    0.0037    0.0245    0.0350   -0.0171
    22 C2     2pz       -0.0000   -0.0001    0.0000    0.0002    0.0000    0.0001    0.0086    0.0047   -0.0129   -0.0014
    23 C2     *pz        0.0000   -0.0003   -0.0004   -0.0002   -0.0001   -0.0006    0.0011   -0.0051    0.0041    0.0046
    24 C2     *d2-      -0.0000    0.0001    0.0000    0.0001    0.0001   -0.0000    0.0016    0.0017    0.0057    0.0004
    25 C2     *d1-       0.0001    0.0000    0.0000   -0.0000   -0.0000    0.0001   -0.0025   -0.0002    0.0017   -0.0002
    26 C2     *d0       -0.0000    0.0000   -0.0001   -0.0001   -0.0001    0.0000   -0.0026   -0.0039   -0.0043    0.0012
    27 C2     *d1+      -0.0000    0.0001   -0.0000   -0.0000   -0.0000   -0.0001   -0.0017   -0.0011    0.0007   -0.0001
    28 C2     *d2+      -0.0000    0.0001   -0.0001   -0.0002    0.0001   -0.0001   -0.0038   -0.0053   -0.0057    0.0018
    29 H3     1s        -0.0001    0.0001    0.0003   -0.0002   -0.0002   -0.0000    0.0109    0.0223    0.1271   -0.2284
    30 H3     *s         0.0002   -0.0000   -0.0000   -0.0010   -0.0001    0.0004   -0.0029   -0.0143   -0.0546    0.0985
    31 H3     *px        0.0000    0.0000    0.0000    0.0002    0.0001   -0.0000    0.0006    0.0010    0.0034   -0.0076
    32 H3     *py        0.0000    0.0001    0.0001   -0.0002    0.0000    0.0000   -0.0017   -0.0009   -0.0067    0.0097
    33 H3     *pz       -0.0000   -0.0000    0.0000   -0.0004    0.0000    0.0000   -0.0004   -0.0015   -0.0087    0.0143
    34 H4     1s         0.0000   -0.0001    0.0004   -0.0001   -0.0000   -0.0002    0.0115    0.0298    0.1226   -0.2500
    35 H4     *s        -0.0001    0.0001   -0.0003   -0.0011    0.0004   -0.0001   -0.0038   -0.0153   -0.0562    0.1087
    36 H4     *px        0.0000    0.0000    0.0000   -0.0005    0.0000   -0.0000   -0.0014   -0.0028   -0.0110    0.0192
    37 H4     *py        0.0000    0.0001    0.0001    0.0001   -0.0000    0.0000   -0.0007   -0.0011   -0.0016   -0.0002
    38 H4     *pz       -0.0000   -0.0000    0.0000   -0.0000    0.0000    0.0001    0.0005    0.0006   -0.0010    0.0007
    39 O1     1s         0.0046    1.0009    0.0000    0.0000   -0.0000   -0.0000   -0.0101   -0.0026    0.0018    0.0001
    40 O1     2s        -0.0001    0.0042   -0.0003    0.0002   -0.0002   -0.0001    0.6272    0.4930   -0.3925   -0.0069
    41 O1     *s         0.0003   -0.0071   -0.0008   -0.0000    0.0001    0.0001    0.0037   -0.0002   -0.0359   -0.0014
    42 O1     2px        0.0002   -0.0009    0.0002   -0.0000    0.0001   -0.0000   -0.0112   -0.0352   -0.0431   -0.0248
    43 O1     *px       -0.0001    0.0016   -0.0002    0.0000   -0.0002    0.0002    0.0076    0.0003    0.0015    0.0125
    44 O1     2py       -0.0002    0.0011   -0.0002    0.0001   -0.0001    0.0000    0.0131    0.0355    0.0526   -0.0207
    45 O1     *py        0.0001   -0.0019    0.0003   -0.0002    0.0001   -0.0003   -0.0082    0.0008   -0.0025    0.0107
    46 O1     2pz       -0.0003   -0.0009    0.0002   -0.0000    0.0000    0.0001   -0.0593   -0.1400   -0.0087    0.0005
    47 O1     *pz        0.0009    0.0016    0.0002   -0.0000    0.0000   -0.0007   -0.0025    0.0278    0.0040   -0.0003
    48 O1     *d2-       0.0000    0.0000   -0.0001   -0.0000    0.0000    0.0000   -0.0046   -0.0026   -0.0016   -0.0004
    49 O1     *d1-       0.0000    0.0001   -0.0001    0.0000   -0.0000    0.0000    0.0000   -0.0090   -0.0014    0.0014
    50 O1     *d0        0.0000   -0.0001    0.0002    0.0000   -0.0000    0.0001    0.0076    0.0009    0.0002    0.0001
    51 O1     *d1+      -0.0000   -0.0001    0.0001   -0.0000    0.0000    0.0000    0.0009    0.0071    0.0012    0.0014
    52 O1     *d2+      -0.0000    0.0000   -0.0000    0.0000    0.0000    0.0000   -0.0010    0.0000   -0.0004    0.0023
    53 O2     1s         1.0005   -0.0047    0.0001    0.0000   -0.0000   -0.0001   -0.0048    0.0035    0.0005   -0.0001
    54 O2     2s         0.0028   -0.0003    0.0005    0.0001   -0.0001   -0.0002    0.5927   -0.6643    0.1558    0.0068
    55 O2     *s        -0.0029    0.0009   -0.0010   -0.0001   -0.0001    0.0006   -0.0638    0.0231    0.0007    0.0017
    56 O2     2px        0.0015   -0.0001   -0.0001    0.0000    0.0000   -0.0000    0.0160   -0.0435    0.0033   -0.0073
    57 O2     *px       -0.0013    0.0002    0.0001   -0.0001   -0.0002    0.0001   -0.0340    0.0323   -0.0019    0.0009
    58 O2     2py       -0.0008    0.0002    0.0000    0.0000    0.0000    0.0000    0.0010    0.0005    0.0130   -0.0011
    59 O2     *py        0.0008   -0.0002   -0.0001   -0.0001   -0.0000   -0.0002    0.0230   -0.0137   -0.0036    0.0011
    60 O2     2pz        0.0009    0.0001   -0.0001   -0.0001    0.0001    0.0000    0.0399   -0.1309    0.0428   -0.0019
    61 O2     *pz        0.0002   -0.0003    0.0008    0.0001   -0.0002   -0.0002   -0.0021    0.0470   -0.0136   -0.0012
    62 O2     *d2-      -0.0001    0.0000   -0.0000   -0.0000    0.0000   -0.0000   -0.0026    0.0012    0.0010    0.0000
    63 O2     *d1-      -0.0001   -0.0000    0.0000    0.0000    0.0000    0.0000    0.0028    0.0036   -0.0033    0.0004
    64 O2     *d0       -0.0000    0.0001   -0.0001    0.0000   -0.0000    0.0000    0.0043    0.0002   -0.0007    0.0000
    65 O2     *d1+       0.0002    0.0000    0.0000    0.0000   -0.0000   -0.0000   -0.0007   -0.0058    0.0036    0.0004
    66 O2     *d2+       0.0001    0.0000   -0.0000    0.0000   -0.0000    0.0000    0.0004   -0.0018    0.0008   -0.0000
    67 H7     1s        -0.0002   -0.0003   -0.0002    0.0000    0.0003   -0.0001    0.2090   -0.3045    0.0767   -0.0016
    68 H7     *s         0.0005    0.0002   -0.0000   -0.0000   -0.0001    0.0001   -0.0933    0.1432   -0.0386    0.0008
    69 H7     *px        0.0006    0.0000    0.0001    0.0000   -0.0000    0.0000   -0.0185    0.0246   -0.0055    0.0000
    70 H7     *py       -0.0003    0.0000   -0.0000    0.0000    0.0000   -0.0000    0.0083   -0.0111    0.0026    0.0001
    71 H7     *pz        0.0005    0.0001   -0.0001   -0.0000   -0.0000    0.0000   -0.0181    0.0226   -0.0052    0.0001
    72 C8     1s        -0.0001    0.0000   -0.0045    0.0018   -0.0030    1.0019   -0.0011   -0.0041   -0.0102   -0.0018
    73 C8     2s        -0.0004   -0.0000   -0.0000    0.0007   -0.0007    0.0105    0.0366    0.1223    0.3200    0.0604
    74 C8     *s         0.0012   -0.0010   -0.0024   -0.0013    0.0013   -0.0125   -0.0259   -0.0339   -0.1157   -0.0192
    75 C8     2px       -0.0000    0.0001    0.0001    0.0000    0.0002    0.0001   -0.0043   -0.0163   -0.0391   -0.0329
    76 C8     *px       -0.0002   -0.0000    0.0003   -0.0001   -0.0008    0.0004    0.0059    0.0020    0.0167    0.0159
    77 C8     2py        0.0000   -0.0001   -0.0002    0.0002   -0.0000   -0.0001    0.0061    0.0228    0.0511   -0.0263
    78 C8     *py        0.0002    0.0000   -0.0004   -0.0009    0.0001   -0.0006   -0.0075   -0.0031   -0.0223    0.0118
    79 C8     2pz       -0.0000   -0.0002   -0.0002    0.0000   -0.0000   -0.0003    0.0147    0.0501    0.0389    0.0022
    80 C8     *pz        0.0004   -0.0006   -0.0007   -0.0001    0.0001   -0.0006   -0.0016   -0.0133   -0.0221   -0.0028
    81 C8     *d2-      -0.0000   -0.0001   -0.0000   -0.0000   -0.0000    0.0001   -0.0004   -0.0018   -0.0043   -0.0005
    82 C8     *d1-       0.0000   -0.0001    0.0001   -0.0000    0.0000   -0.0002    0.0030    0.0064    0.0062   -0.0016
    83 C8     *d0        0.0000    0.0000    0.0001    0.0001   -0.0001   -0.0001    0.0024    0.0025    0.0007    0.0002
    84 C8     *d1+      -0.0000    0.0001   -0.0001    0.0000   -0.0000    0.0001   -0.0022   -0.0049   -0.0048   -0.0024
    85 C8     *d2+      -0.0000   -0.0000   -0.0000    0.0001    0.0001    0.0000   -0.0002   -0.0006   -0.0012    0.0017
    86 H9     1s        -0.0001    0.0001    0.0003    0.0000   -0.0002    0.0002    0.0073    0.0347    0.1035    0.0495
    87 H9     *s         0.0000   -0.0001   -0.0001   -0.0004   -0.0001    0.0010   -0.0023   -0.0144   -0.0475   -0.0243
    88 H9     *px        0.0000    0.0000    0.0000    0.0000    0.0001   -0.0002    0.0002    0.0010    0.0015    0.0008
    89 H9     *py       -0.0000   -0.0000   -0.0000    0.0000   -0.0000   -0.0004    0.0011    0.0033    0.0093    0.0022
    90 H9     *pz       -0.0000   -0.0001   -0.0001   -0.0000   -0.0000    0.0001    0.0004    0.0009   -0.0003   -0.0017
    91 H10    1s        -0.0001    0.0001    0.0003    0.0002   -0.0000    0.0002    0.0075    0.0345    0.1037    0.0011
    92 H10    *s         0.0001   -0.0001   -0.0001    0.0001    0.0004    0.0010   -0.0022   -0.0143   -0.0476    0.0024
    93 H10    *px        0.0000    0.0000    0.0000    0.0000    0.0000    0.0005   -0.0011   -0.0033   -0.0094   -0.0016
    94 H10    *py       -0.0000   -0.0000   -0.0000    0.0001    0.0000    0.0001    0.0001   -0.0002    0.0006    0.0001
    95 H10    *pz       -0.0000   -0.0001   -0.0001    0.0000    0.0000    0.0001    0.0005    0.0011    0.0002    0.0014
    96 H11    1s        -0.0000   -0.0001    0.0001    0.0002   -0.0002    0.0002    0.0158    0.0263    0.1213    0.0246
    97 H11    *s         0.0001    0.0000   -0.0001    0.0001   -0.0001    0.0011   -0.0005   -0.0152   -0.0592   -0.0109
    98 H11    *px       -0.0000   -0.0000    0.0000    0.0000    0.0001   -0.0002    0.0006    0.0010    0.0033   -0.0002
    99 H11    *py        0.0000    0.0001   -0.0000    0.0001    0.0000    0.0002   -0.0007   -0.0011   -0.0037   -0.0014
   100 H11    *pz        0.0000    0.0000   -0.0001   -0.0000    0.0000   -0.0004    0.0009    0.0031    0.0088    0.0018
   101 C12    1s         0.0000   -0.0001   -0.0046    0.0039    1.0019    0.0026   -0.0007   -0.0022   -0.0117   -0.0159
   102 C12    2s         0.0000   -0.0002    0.0003    0.0007    0.0104   -0.0007    0.0481    0.0976    0.3647    0.5099
   103 C12    *s        -0.0004    0.0000   -0.0040   -0.0015   -0.0123    0.0014   -0.0149   -0.0474   -0.1410   -0.1570
   104 C12    2px       -0.0000   -0.0002   -0.0004    0.0000   -0.0002   -0.0001    0.0305    0.0439    0.0715    0.0024
   105 C12    *px       -0.0000    0.0001   -0.0015   -0.0005   -0.0009    0.0006   -0.0067   -0.0213   -0.0385   -0.0153
   106 C12    2py       -0.0000    0.0000   -0.0001    0.0001   -0.0000    0.0001   -0.0004   -0.0020    0.0172   -0.0257
   107 C12    *py       -0.0001    0.0002   -0.0001   -0.0007   -0.0000   -0.0004    0.0012   -0.0013   -0.0097    0.0131
   108 C12    2pz       -0.0000   -0.0001    0.0000   -0.0000   -0.0002    0.0001    0.0073    0.0021   -0.0172   -0.0026
   109 C12    *pz       -0.0000   -0.0003   -0.0003    0.0001    0.0002   -0.0006   -0.0015   -0.0007    0.0056   -0.0024
   110 C12    *d2-      -0.0000    0.0001   -0.0000   -0.0001   -0.0000   -0.0001   -0.0000   -0.0005    0.0026   -0.0016
   111 C12    *d1-       0.0000   -0.0001    0.0000    0.0000   -0.0000    0.0001    0.0008    0.0013   -0.0004   -0.0001
   112 C12    *d0       -0.0000    0.0000   -0.0001    0.0001    0.0001    0.0000   -0.0027   -0.0043   -0.0040   -0.0013
   113 C12    *d1+      -0.0001   -0.0000   -0.0000    0.0000    0.0000   -0.0001    0.0026   -0.0004   -0.0025   -0.0007
   114 C12    *d2+       0.0000   -0.0000    0.0001    0.0000   -0.0002    0.0000    0.0041    0.0056    0.0074    0.0016
   115 H13    1s         0.0000   -0.0001    0.0004    0.0000    0.0002   -0.0002    0.0118    0.0289    0.1197    0.2309
   116 H13    *s        -0.0001    0.0001   -0.0003   -0.0004    0.0011   -0.0001   -0.0034   -0.0155   -0.0547   -0.1011
   117 H13    *px       -0.0000   -0.0001   -0.0001    0.0000   -0.0000   -0.0000    0.0011    0.0014    0.0039    0.0034
   118 H13    *py        0.0000   -0.0000    0.0000    0.0000   -0.0005    0.0000    0.0013    0.0025    0.0102    0.0171
   119 H13    *pz       -0.0000   -0.0000    0.0000   -0.0000    0.0000    0.0001    0.0006    0.0002   -0.0014   -0.0016
   120 H14    1s         0.0001   -0.0000    0.0003    0.0002    0.0002   -0.0002    0.0059    0.0256    0.1393    0.2080
   121 H14    *s         0.0000    0.0001   -0.0003    0.0001    0.0012   -0.0001   -0.0053   -0.0116   -0.0644   -0.0907
   122 H14    *px        0.0000    0.0001   -0.0001    0.0000   -0.0001   -0.0000    0.0006    0.0018    0.0043    0.0068
   123 H14    *py       -0.0000   -0.0000   -0.0000    0.0001    0.0002    0.0000   -0.0000   -0.0010   -0.0042   -0.0069
   124 H14    *pz        0.0000    0.0000    0.0000   -0.0000   -0.0004    0.0001    0.0002    0.0024    0.0099    0.0143
   125 H15    1s        -0.0001    0.0001    0.0003    0.0002    0.0002   -0.0000    0.0123    0.0203    0.1242    0.2026
   126 H15    *s         0.0002   -0.0000   -0.0000    0.0001    0.0009    0.0004   -0.0046   -0.0114   -0.0541   -0.0868
   127 H15    *px       -0.0000   -0.0001   -0.0001    0.0000   -0.0001   -0.0000    0.0017    0.0004    0.0053    0.0068
   128 H15    *py       -0.0000   -0.0000   -0.0000    0.0001    0.0003    0.0000   -0.0010   -0.0011   -0.0048   -0.0089
   129 H15    *pz       -0.0000   -0.0000    0.0000   -0.0000    0.0004    0.0000   -0.0002   -0.0018   -0.0086   -0.0128
   130 H16    1s         0.0002   -0.0001    0.0003   -0.0002   -0.0002   -0.0002    0.0068    0.0246    0.1424   -0.2284
   131 H16    *s         0.0000    0.0001   -0.0003   -0.0012   -0.0001   -0.0001   -0.0035   -0.0139   -0.0651    0.0990
   132 H16    *px        0.0000   -0.0000    0.0000    0.0002    0.0001   -0.0000    0.0001    0.0004    0.0036   -0.0062
   133 H16    *py       -0.0000   -0.0001    0.0001   -0.0001    0.0000    0.0001   -0.0006   -0.0018   -0.0047    0.0082
   134 H16    *pz        0.0000    0.0000    0.0000    0.0004   -0.0000    0.0001    0.0005    0.0021    0.0103   -0.0160
 
 
      Orbital                11        12        13        14        15        16        17        18        19        20
      Energy            -0.9351   -0.7489   -0.6798   -0.6128   -0.6055   -0.5862   -0.5446   -0.5376   -0.5136   -0.5110
      Occ. No.           2.0000    2.0000    2.0000    2.0000    2.0000    2.0000    2.0000    2.0000    2.0000    2.0000
 
     1 C1     1s        -0.0001    0.0007    0.0009    0.0018   -0.0003    0.0003   -0.0001   -0.0003   -0.0010   -0.0035
     2 C1     2s        -0.0028   -0.5175   -0.2131    0.0041   -0.0060    0.0351    0.0131    0.0037    0.0207    0.0611
     3 C1     *s        -0.0051    0.1025   -0.0114   -0.0169    0.0029    0.0119    0.0047    0.0074    0.0177    0.0559
     4 C1     2px       -0.1383   -0.0148    0.0024    0.2380    0.2377   -0.1251   -0.0666   -0.0864   -0.0584   -0.1311
     5 C1     *px        0.0033    0.0274   -0.0104   -0.0348   -0.0224    0.0101    0.0009    0.0073    0.0156    0.0511
     6 C1     2py        0.1427    0.0138   -0.0222   -0.1680    0.2831    0.1433   -0.0629    0.0745    0.0406    0.1419
     7 C1     *py       -0.0015   -0.0389    0.0323    0.0224   -0.0298   -0.0218   -0.0022   -0.0138   -0.0179   -0.0508
     8 C1     2pz        0.1515   -0.0684    0.1983    0.1381   -0.0067    0.2225   -0.0093    0.0769   -0.0806   -0.3045
     9 C1     *pz        0.0037    0.0187   -0.0001   -0.0269    0.0038   -0.0216    0.0019    0.0010    0.0233    0.0845
    10 C1     *d2-       0.0119    0.0015   -0.0023    0.0024   -0.0019   -0.0080   -0.0063    0.0198    0.0037    0.0123
    11 C1     *d1-      -0.0160    0.0043   -0.0031   -0.0036   -0.0029    0.0018   -0.0130   -0.0042    0.0085    0.0289
    12 C1     *d0       -0.0146   -0.0078    0.0079    0.0028   -0.0002   -0.0066   -0.0031    0.0082   -0.0088   -0.0279
    13 C1     *d1+       0.0111   -0.0040    0.0020    0.0033   -0.0043    0.0025   -0.0202   -0.0039   -0.0070   -0.0246
    14 C1     *d2+       0.0056    0.0004   -0.0007    0.0013    0.0029   -0.0029    0.0031    0.0053    0.0015    0.0022
    15 C2     1s        -0.0068   -0.0093   -0.0012   -0.0001    0.0031    0.0014   -0.0008    0.0004   -0.0000   -0.0002
    16 C2     2s         0.2391    0.1860    0.0304    0.0323   -0.0549    0.0060   -0.0120    0.0065    0.0060    0.0214
    17 C2     *s        -0.0770   -0.0098   -0.0137    0.0080   -0.0125    0.0006    0.0050    0.0008   -0.0011   -0.0036
    18 C2     2px       -0.0273    0.0671    0.0223    0.3022    0.0507   -0.2553   -0.1468    0.1443    0.3318   -0.0081
    19 C2     *px        0.0143   -0.0282    0.0018   -0.0635   -0.0145    0.0423    0.0214   -0.0164   -0.0460   -0.0042
    20 C2     2py        0.0126    0.2195    0.1185    0.0021   -0.3197    0.0017    0.0938   -0.0829   -0.1476   -0.1361
    21 C2     *py        0.0013   -0.0622   -0.0321    0.0082    0.0614    0.0103   -0.0198    0.0124    0.0191    0.0211
    22 C2     2pz        0.0254   -0.0399    0.1193    0.1313   -0.0155    0.3045   -0.4103    0.0856   -0.1014    0.2537
    23 C2     *pz       -0.0167    0.0112   -0.0370   -0.0318   -0.0045   -0.0656    0.0571   -0.0196    0.0121   -0.0401
    24 C2     *d2-       0.0024   -0.0072   -0.0043   -0.0053    0.0065    0.0020   -0.0012    0.0050    0.0058    0.0066
    25 C2     *d1-      -0.0013    0.0003    0.0004    0.0019   -0.0013    0.0053   -0.0119    0.0005   -0.0028    0.0147
    26 C2     *d0       -0.0001    0.0086    0.0036   -0.0066   -0.0115    0.0009    0.0094   -0.0058   -0.0117   -0.0071
    27 C2     *d1+      -0.0010    0.0021   -0.0041   -0.0038    0.0002   -0.0095    0.0091   -0.0024    0.0046   -0.0054
    28 C2     *d2+       0.0010    0.0117    0.0051    0.0072   -0.0088   -0.0065   -0.0020    0.0048    0.0101   -0.0009
    29 H3     1s         0.1251    0.1441    0.1570    0.0015   -0.2187    0.3220   -0.2186   -0.0328   -0.2904    0.1547
    30 H3     *s        -0.0547   -0.0559   -0.0341   -0.0056    0.0705   -0.1086    0.0651    0.0055    0.0787   -0.0314
    31 H3     *px        0.0038    0.0049    0.0038    0.0060   -0.0035    0.0023   -0.0075    0.0026    0.0005    0.0027
    32 H3     *py       -0.0030   -0.0011   -0.0045   -0.0004    0.0012   -0.0076    0.0079    0.0000    0.0048   -0.0070
    33 H3     *pz       -0.0074   -0.0094   -0.0040    0.0028    0.0103   -0.0089    0.0009    0.0023    0.0105   -0.0010
    34 H4     1s         0.0823    0.1643    0.0464    0.3149    0.0054   -0.2390   -0.1659    0.1518    0.3481    0.0143
    35 H4     *s        -0.0326   -0.0488   -0.0188   -0.0969   -0.0019    0.0725    0.0491   -0.0410   -0.0855    0.0043
    36 H4     *px       -0.0077   -0.0105   -0.0025   -0.0122    0.0016    0.0088    0.0060   -0.0049   -0.0118   -0.0001
    37 H4     *py       -0.0013    0.0030    0.0019   -0.0017   -0.0050    0.0001    0.0021   -0.0025   -0.0036   -0.0026
    38 H4     *pz        0.0007   -0.0015    0.0024    0.0022   -0.0002    0.0074   -0.0080    0.0020   -0.0030    0.0049
    39 O1     1s        -0.0005    0.0011   -0.0008    0.0013   -0.0002    0.0012    0.0004    0.0003    0.0005    0.0018
    40 O1     2s         0.0338    0.2642   -0.0646   -0.1273    0.0213   -0.0035   -0.0076    0.0294    0.0115    0.0382
    41 O1     *s         0.0069    0.0541   -0.0179   -0.0646    0.0105   -0.0184   -0.0069    0.0072   -0.0001    0.0008
    42 O1     2px       -0.0200    0.2073   -0.1381   -0.1179    0.0739   -0.0159   -0.0193   -0.0041    0.0770    0.2643
    43 O1     *px        0.0068    0.0026    0.0059   -0.0177   -0.0127    0.0029    0.0077    0.0081    0.0075    0.0199
    44 O1     2py        0.0181   -0.2361    0.1208    0.1803    0.0255    0.0427   -0.0385   -0.0006   -0.0970   -0.3242
    45 O1     *py       -0.0064   -0.0019   -0.0072    0.0147   -0.0165   -0.0031    0.0078   -0.0057   -0.0059   -0.0239
    46 O1     2pz        0.0039    0.2169   -0.0711   -0.2114    0.0303   -0.0366    0.0040    0.0273    0.1014    0.3412
    47 O1     *pz       -0.0035   -0.0078   -0.0164    0.0154   -0.0027    0.0010    0.0022   -0.0008    0.0045    0.0147
    48 O1     *d2-      -0.0016    0.0083   -0.0073   -0.0019    0.0006   -0.0006   -0.0001    0.0005    0.0021    0.0069
    49 O1     *d1-      -0.0007    0.0081    0.0004   -0.0070   -0.0020   -0.0038    0.0005   -0.0015    0.0030    0.0097
    50 O1     *d0       -0.0033    0.0000   -0.0074    0.0048   -0.0011    0.0001    0.0010   -0.0019   -0.0003   -0.0009
    51 O1     *d1+       0.0005   -0.0062   -0.0029    0.0062   -0.0042    0.0051    0.0004    0.0017   -0.0022   -0.0092
    52 O1     *d2+       0.0000    0.0012    0.0002   -0.0019   -0.0035   -0.0011    0.0022    0.0004    0.0004    0.0020
    53 O2     1s         0.0011   -0.0016   -0.0012    0.0022   -0.0003    0.0016    0.0002    0.0010   -0.0001   -0.0011
    54 O2     2s        -0.0267   -0.1225    0.1948   -0.0400    0.0030   -0.1432   -0.0093   -0.0629    0.0016    0.0267
    55 O2     *s        -0.0061   -0.0231    0.1133   -0.0572    0.0074   -0.0893   -0.0081   -0.0392    0.0054    0.0377
    56 O2     2px       -0.0323    0.1076   -0.4335    0.1881   -0.0320    0.2591    0.0186    0.0770   -0.0316   -0.1307
    57 O2     *px        0.0065   -0.0104    0.0278   -0.0066   -0.0025   -0.0065    0.0019   -0.0023   -0.0003    0.0021
    58 O2     2py        0.0180   -0.0845    0.2383   -0.0742    0.0129   -0.1199   -0.0285   -0.0422   -0.0033    0.0294
    59 O2     *py       -0.0036    0.0093   -0.0118   -0.0028   -0.0036   -0.0018    0.0026    0.0019    0.0008    0.0025
    60 O2     2pz       -0.0301    0.0436   -0.3137    0.1574   -0.0262    0.1847    0.0222    0.0572   -0.0276   -0.1268
    61 O2     *pz        0.0161   -0.0096    0.0396   -0.0141    0.0035   -0.0120   -0.0042    0.0028    0.0012    0.0080
    62 O2     *d2-       0.0006   -0.0047    0.0089   -0.0010    0.0001   -0.0045   -0.0008   -0.0015   -0.0007   -0.0010
    63 O2     *d1-       0.0005    0.0025    0.0047   -0.0054    0.0005   -0.0043    0.0003   -0.0006    0.0014    0.0046
    64 O2     *d0        0.0006   -0.0030    0.0049    0.0002    0.0001   -0.0007   -0.0005   -0.0001   -0.0013   -0.0044
    65 O2     *d1+      -0.0007   -0.0015   -0.0087    0.0069   -0.0015    0.0066    0.0017    0.0018   -0.0013   -0.0063
    66 O2     *d2+      -0.0004    0.0004   -0.0053    0.0034   -0.0001    0.0036    0.0005    0.0011   -0.0004   -0.0031
    67 H7     1s        -0.0510    0.0636   -0.4645    0.2389   -0.0395    0.2799    0.0343    0.0815   -0.0402   -0.1877
    68 H7     *s         0.0205   -0.0164    0.1803   -0.1004    0.0162   -0.1072   -0.0128   -0.0288    0.0185    0.0801
    69 H7     *px        0.0034   -0.0020    0.0190   -0.0098    0.0018   -0.0101   -0.0013   -0.0026    0.0019    0.0081
    70 H7     *py       -0.0012   -0.0002   -0.0063    0.0045   -0.0005    0.0039    0.0002    0.0010   -0.0010   -0.0047
    71 H7     *pz        0.0035   -0.0043    0.0269   -0.0122    0.0021   -0.0138   -0.0018   -0.0039    0.0011    0.0068
    72 C8     1s         0.0192   -0.0066   -0.0049    0.0015   -0.0006   -0.0019    0.0004   -0.0015    0.0001    0.0001
    73 C8     2s        -0.6398    0.1401    0.1014    0.0048    0.0055    0.0484    0.0068   -0.0161    0.0042    0.0150
    74 C8     *s         0.2060   -0.0461    0.0251    0.0068    0.0003    0.0094   -0.0009    0.0023   -0.0053   -0.0147
    75 C8     2px       -0.0084    0.0746    0.1028    0.1568    0.2861    0.1059    0.1888   -0.1673   -0.2717    0.1253
    76 C8     *px       -0.0022   -0.0168   -0.0306   -0.0405   -0.0580   -0.0181   -0.0220    0.0256    0.0376   -0.0167
    77 C8     2py        0.0038   -0.1012   -0.1461   -0.0806    0.2384   -0.2111    0.0266    0.2402   -0.2486    0.0420
    78 C8     *py        0.0067    0.0240    0.0413    0.0251   -0.0511    0.0375    0.0015   -0.0319    0.0330   -0.0072
    79 C8     2pz       -0.0031   -0.1549   -0.1343    0.2135   -0.0770   -0.1066    0.1054   -0.4010    0.0754    0.2310
    80 C8     *pz        0.0233    0.0378    0.0377   -0.0612    0.0190    0.0198   -0.0198    0.0689   -0.0116   -0.0346
    81 C8     *d2-       0.0000    0.0041    0.0066    0.0064   -0.0021    0.0059    0.0003   -0.0062    0.0028   -0.0038
    82 C8     *d1-      -0.0013   -0.0113   -0.0084    0.0075    0.0020   -0.0069    0.0019   -0.0110    0.0002    0.0086
    83 C8     *d0       -0.0004   -0.0048   -0.0028   -0.0037   -0.0002   -0.0072   -0.0047    0.0136   -0.0036   -0.0116
    84 C8     *d1+       0.0007    0.0086    0.0056   -0.0046    0.0071    0.0045   -0.0043    0.0094   -0.0034   -0.0068
    85 C8     *d2+       0.0003    0.0013    0.0021    0.0022    0.0077   -0.0001    0.0074    0.0006   -0.0154    0.0043
    86 H9     1s        -0.2702    0.1315    0.1467    0.0520   -0.3005    0.1891   -0.0673   -0.2262    0.3406   -0.0459
    87 H9     *s         0.1162   -0.0402   -0.0491   -0.0177    0.0925   -0.0560    0.0193    0.0666   -0.0858    0.0202
    88 H9     *px       -0.0062    0.0035    0.0042    0.0039    0.0011    0.0044    0.0029   -0.0068   -0.0006    0.0017
    89 H9     *py       -0.0205    0.0075    0.0068    0.0003   -0.0117    0.0070   -0.0029   -0.0065    0.0126   -0.0019
    90 H9     *pz        0.0017   -0.0032   -0.0027    0.0045    0.0005   -0.0021    0.0021   -0.0071   -0.0003    0.0049
    91 H10    1s        -0.2750    0.1316    0.1362    0.1545    0.2924    0.1152    0.2001   -0.1721   -0.2959    0.1569
    92 H10    *s         0.1187   -0.0406   -0.0436   -0.0502   -0.0889   -0.0352   -0.0567    0.0502    0.0793   -0.0298
    93 H10    *px        0.0215   -0.0083   -0.0071   -0.0049   -0.0115   -0.0052   -0.0068    0.0056    0.0106   -0.0054
    94 H10    *py        0.0016   -0.0019   -0.0028   -0.0023    0.0040   -0.0038    0.0000    0.0056   -0.0041    0.0006
    95 H10    *pz        0.0008   -0.0027   -0.0022    0.0042   -0.0026   -0.0013    0.0023   -0.0076    0.0024    0.0042
    96 H11    1s        -0.2621    0.1394    0.0861   -0.2699    0.0650    0.0049   -0.1502    0.5125   -0.0770   -0.2593
    97 H11    *s         0.1158   -0.0426   -0.0237    0.0616   -0.0150   -0.0021    0.0358   -0.1257    0.0160    0.0531
    98 H11    *px       -0.0071    0.0040    0.0033   -0.0017    0.0068    0.0021    0.0015    0.0054   -0.0067   -0.0004
    99 H11    *py        0.0077   -0.0048   -0.0041    0.0037    0.0035   -0.0042    0.0034   -0.0047   -0.0043    0.0041
   100 H11    *pz       -0.0188    0.0058    0.0031   -0.0091    0.0018   -0.0006   -0.0050    0.0165   -0.0019   -0.0072
   101 C12    1s        -0.0099   -0.0095   -0.0006   -0.0014   -0.0026    0.0015    0.0009    0.0009   -0.0000   -0.0002
   102 C12    2s         0.3356    0.1948    0.0106    0.0592    0.0395    0.0025    0.0168    0.0149    0.0085    0.0203
   103 C12    *s        -0.1063   -0.0152   -0.0026    0.0073    0.0094   -0.0085   -0.0046   -0.0051    0.0012    0.0015
   104 C12    2px       -0.0045   -0.2315   -0.0809   -0.1787   -0.2449    0.0871    0.0747    0.0920    0.0389    0.1695
   105 C12    *px       -0.0071    0.0650    0.0314    0.0222    0.0495   -0.0321   -0.0208   -0.0216   -0.0069   -0.0190
   106 C12    2py        0.0258   -0.0189   -0.0009   -0.2129    0.2562    0.2220   -0.0462   -0.2125    0.3077   -0.1779
   107 C12    *py       -0.0124    0.0152   -0.0107    0.0482   -0.0552   -0.0314    0.0136    0.0295   -0.0385    0.0271
   108 C12    2pz        0.0241   -0.0298    0.1461    0.1208    0.0265    0.2010    0.4027    0.2802    0.2046    0.1010
   109 C12    *pz       -0.0161    0.0074   -0.0418   -0.0295    0.0020   -0.0505   -0.0590   -0.0478   -0.0302   -0.0192
   110 C12    *d2-       0.0024   -0.0017   -0.0017   -0.0022   -0.0013    0.0005   -0.0003    0.0073   -0.0044    0.0088
   111 C12    *d1-       0.0006   -0.0019    0.0046    0.0033    0.0013    0.0079    0.0115    0.0072    0.0094    0.0017
   112 C12    *d0       -0.0006    0.0087    0.0023   -0.0014    0.0132   -0.0006   -0.0068   -0.0101    0.0061   -0.0102
   113 C12    *d1+       0.0013    0.0008    0.0007   -0.0001    0.0007   -0.0013   -0.0109   -0.0056   -0.0077   -0.0101
   114 C12    *d2+       0.0005   -0.0137   -0.0051   -0.0125   -0.0059    0.0066    0.0000   -0.0030    0.0078    0.0002
   115 H13    1s         0.1255    0.1681    0.0369    0.2842   -0.1557   -0.2154    0.0662    0.2165   -0.3014    0.1615
   116 H13    *s        -0.0517   -0.0511   -0.0138   -0.0888    0.0485    0.0659   -0.0200   -0.0608    0.0802   -0.0336
   117 H13    *px        0.0036   -0.0008   -0.0007    0.0021   -0.0060   -0.0012    0.0023    0.0051   -0.0033    0.0052
   118 H13    *py        0.0105    0.0111    0.0024    0.0115   -0.0030   -0.0081    0.0026    0.0065   -0.0097    0.0043
   119 H13    *pz        0.0000   -0.0019    0.0030    0.0011    0.0012    0.0058    0.0078    0.0051    0.0057    0.0011
   120 H14    1s         0.1350    0.1914   -0.0760   -0.0822    0.1896   -0.1273   -0.4006   -0.3625   -0.0840   -0.2469
   121 H14    *s        -0.0583   -0.0652    0.0256    0.0189   -0.0485    0.0272    0.1019    0.0921    0.0153    0.0468
   122 H14    *px        0.0046    0.0017   -0.0030   -0.0042    0.0005   -0.0013   -0.0075   -0.0060   -0.0015   -0.0031
   123 H14    *py       -0.0033   -0.0052    0.0020   -0.0027    0.0012    0.0070    0.0070    0.0025    0.0080    0.0000
   124 H14    *pz        0.0101    0.0101   -0.0008   -0.0012    0.0098   -0.0020   -0.0098   -0.0108    0.0011   -0.0074
   125 H15    1s         0.1632    0.1461    0.1486    0.0781    0.2562    0.2212    0.2691    0.0779    0.3203   -0.0590
   126 H15    *s        -0.0707   -0.0580   -0.0256   -0.0343   -0.0809   -0.0825   -0.0826   -0.0290   -0.0835    0.0290
   127 H15    *px        0.0030   -0.0004    0.0039   -0.0012    0.0014    0.0044    0.0069    0.0024    0.0069    0.0026
   128 H15    *py       -0.0062   -0.0053   -0.0048   -0.0065   -0.0023   -0.0019   -0.0082   -0.0066   -0.0024   -0.0017
   129 H15    *pz       -0.0099   -0.0096   -0.0028   -0.0015   -0.0121   -0.0069   -0.0034    0.0015   -0.0098    0.0053
   130 H16    1s         0.0949    0.1858   -0.0346   -0.1891   -0.1671   -0.1849    0.4489   -0.1567   -0.0874   -0.3054
   131 H16    *s        -0.0415   -0.0628    0.0115    0.0490    0.0431    0.0447   -0.1195    0.0398    0.0180    0.0610
   132 H16    *px        0.0015    0.0050   -0.0006    0.0027   -0.0016   -0.0082    0.0043    0.0006    0.0062   -0.0039
   133 H16    *py       -0.0033   -0.0022    0.0026    0.0041   -0.0009    0.0047   -0.0088    0.0018   -0.0009    0.0053
   134 H16    *pz        0.0074    0.0097    0.0008   -0.0063   -0.0088   -0.0027    0.0123   -0.0056   -0.0058   -0.0071
 
 
      Orbital                21        22        23        24        25        26
      Energy            -0.4816   -0.4778   -0.3368   -0.0093   -0.0003   -0.0033
      Occ. No.           2.0000    2.0000    1.3303    1.9197    1.6694    1.0806
 
     1 C1     1s         0.0003   -0.0006    0.0004    0.0049    0.0000    0.0009
     2 C1     2s         0.0022   -0.0025   -0.0154    0.0040   -0.0195   -0.0104
     3 C1     *s        -0.0023    0.0005   -0.0081   -0.0115   -0.0091    0.0256
     4 C1     2px       -0.3552   -0.2822    0.0315    0.0050   -0.0706   -0.0220
     5 C1     *px        0.0537    0.0453   -0.0425    0.0012   -0.0107    0.0053
     6 C1     2py       -0.3262    0.3123    0.0410   -0.0116   -0.0401    0.0211
     7 C1     *py        0.0521   -0.0493   -0.0374   -0.0162   -0.0151   -0.0082
     8 C1     2pz        0.0140    0.2772   -0.0262   -0.0620   -0.0280   -0.0795
     9 C1     *pz       -0.0069   -0.0228   -0.0005   -0.0511    0.0055   -0.0329
    10 C1     *d2-      -0.0095    0.0210    0.0046    0.0083   -0.0036    0.0128
    11 C1     *d1-      -0.0035   -0.0189   -0.0102    0.0138    0.0115    0.0137
    12 C1     *d0        0.0026   -0.0185    0.0007    0.0112   -0.0012    0.0248
    13 C1     *d1+      -0.0059    0.0125   -0.0161   -0.0109    0.0085   -0.0096
    14 C1     *d2+       0.0325    0.0076   -0.0213    0.0014    0.0189    0.0022
    15 C2     1s        -0.0000    0.0005   -0.0015    0.0001   -0.0005    0.0009
    16 C2     2s        -0.0873    0.0444    0.0385   -0.0157   -0.0710   -0.0173
    17 C2     *s        -0.0264    0.0072    0.0439    0.0169    0.0023   -0.0268
    18 C2     2px        0.2786    0.0983   -0.0011    0.0081    0.0117    0.0115
    19 C2     *px       -0.0290   -0.0086    0.0096   -0.0045    0.0016    0.0160
    20 C2     2py        0.3299   -0.2449   -0.0941    0.0269    0.0816    0.0296
    21 C2     *py       -0.0383    0.0262   -0.0229    0.0069   -0.0313   -0.0016
    22 C2     2pz        0.0590   -0.1623   -0.0036   -0.0027   -0.0472   -0.0054
    23 C2     *pz       -0.0056    0.0088   -0.0056    0.0105    0.0192   -0.0096
    24 C2     *d2-      -0.0031    0.0146    0.0005   -0.0010    0.0001    0.0009
    25 C2     *d1-       0.0020   -0.0142   -0.0017   -0.0001   -0.0014    0.0029
    26 C2     *d0        0.0017   -0.0095   -0.0011    0.0016    0.0034   -0.0004
    27 C2     *d1+      -0.0022    0.0048   -0.0008    0.0003    0.0026    0.0017
    28 C2     *d2+       0.0218    0.0058   -0.0024    0.0006    0.0020    0.0006
    29 H3     1s         0.0761   -0.3173   -0.0204    0.0069   -0.0288    0.0142
    30 H3     *s        -0.0169    0.0619    0.0296   -0.0114    0.0251    0.0373
    31 H3     *px        0.0073   -0.0022    0.0001   -0.0000   -0.0005    0.0007
    32 H3     *py        0.0039    0.0047   -0.0031   -0.0006    0.0008   -0.0002
    33 H3     *pz       -0.0024    0.0080    0.0022    0.0001    0.0017   -0.0010
    34 H4     1s         0.3002    0.1257    0.0063   -0.0039   -0.0124   -0.0045
    35 H4     *s        -0.0537   -0.0209   -0.0216    0.0008    0.0294   -0.0067
    36 H4     *px       -0.0094   -0.0029   -0.0007    0.0002    0.0001    0.0008
    37 H4     *py        0.0040   -0.0063    0.0011   -0.0003   -0.0002    0.0011
    38 H4     *pz        0.0005   -0.0035   -0.0011    0.0001   -0.0003    0.0005
    39 O1     1s         0.0000   -0.0008   -0.0001   -0.0022   -0.0009    0.0026
    40 O1     2s        -0.0021    0.0119    0.0167   -0.0065    0.0061    0.2787
    41 O1     *s        -0.0008    0.0105    0.0147   -0.0511    0.0142    0.2454
    42 O1     2px       -0.0716   -0.0223   -0.5375   -0.2838    0.5092   -0.2925
    43 O1     *px        0.0091    0.0073   -0.0427   -0.0079    0.0308   -0.0781
    44 O1     2py       -0.0374    0.0233   -0.4661    0.3792    0.3619    0.3964
    45 O1     *py        0.0103   -0.0078   -0.0369    0.0138    0.0192    0.0958
    46 O1     2pz       -0.0163    0.0410    0.0420    0.4509   -0.0008    0.6032
    47 O1     *pz       -0.0008   -0.0043    0.0024   -0.0366    0.0005    0.1410
    48 O1     *d2-      -0.0011   -0.0028   -0.0016   -0.0098    0.0024   -0.0029
    49 O1     *d1-       0.0025   -0.0010    0.0067    0.0126    0.0035   -0.0105
    50 O1     *d0        0.0004   -0.0068   -0.0026    0.0026   -0.0029   -0.0170
    51 O1     *d1+       0.0042    0.0010    0.0063   -0.0090    0.0018    0.0079
    52 O1     *d2+       0.0056   -0.0003    0.0052   -0.0031   -0.0125   -0.0005
    53 O2     1s         0.0002    0.0010   -0.0005    0.0006   -0.0010   -0.0022
    54 O2     2s        -0.0073   -0.0222   -0.0192    0.0294    0.0031   -0.2941
    55 O2     *s        -0.0068   -0.0229   -0.0106   -0.0659    0.0170   -0.2814
    56 O2     2px        0.0183    0.0186    0.4134    0.3235    0.3219   -0.3146
    57 O2     *px        0.0020   -0.0025    0.0321    0.0025    0.0126   -0.0744
    58 O2     2py       -0.0118   -0.0093    0.5599   -0.3289    0.5368    0.3483
    59 O2     *py        0.0027    0.0029    0.0444    0.0087    0.0219    0.0883
    60 O2     2pz        0.0163    0.0179   -0.1162   -0.4827   -0.1366    0.5889
    61 O2     *pz       -0.0028    0.0105   -0.0104    0.0234   -0.0082    0.1448
    62 O2     *d2-      -0.0002   -0.0003    0.0048   -0.0092    0.0035    0.0026
    63 O2     *d1-       0.0002    0.0003    0.0071    0.0109   -0.0010    0.0119
    64 O2     *d0        0.0000    0.0013   -0.0010    0.0025   -0.0009    0.0165
    65 O2     *d1+       0.0014    0.0001    0.0047   -0.0124   -0.0062   -0.0076
    66 O2     *d2+       0.0000    0.0002    0.0051    0.0008    0.0128   -0.0041
    67 H7     1s         0.0263    0.0197    0.0349   -0.0392   -0.0423    0.0303
    68 H7     *s        -0.0088   -0.0076   -0.0080   -0.0169    0.0189    0.1269
    69 H7     *px       -0.0010   -0.0007    0.0106    0.0094    0.0124   -0.0145
    70 H7     *py        0.0005    0.0005    0.0190   -0.0085    0.0146    0.0141
    71 H7     *pz       -0.0014   -0.0003   -0.0046   -0.0071   -0.0026    0.0179
    72 C8     1s         0.0001   -0.0005    0.0001   -0.0001   -0.0001    0.0012
    73 C8     2s         0.0057   -0.1004    0.0029    0.0640    0.0026    0.0896
    74 C8     *s         0.0011   -0.0230   -0.0021   -0.0110   -0.0007    0.0283
    75 C8     2px        0.2032    0.2716    0.0146   -0.0162   -0.0132   -0.0190
    76 C8     *px       -0.0190   -0.0319    0.0142    0.0093   -0.0014   -0.0038
    77 C8     2py        0.1985   -0.3163    0.0166    0.0244   -0.0044    0.0284
    78 C8     *py       -0.0199    0.0380    0.0088   -0.0105   -0.0027    0.0029
    79 C8     2pz       -0.0051   -0.2439    0.0047    0.0790    0.0079    0.0857
    80 C8     *pz       -0.0001    0.0381    0.0009   -0.0162    0.0025   -0.0418
    81 C8     *d2-      -0.0057    0.0094    0.0003    0.0016   -0.0006    0.0016
    82 C8     *d1-      -0.0034   -0.0109    0.0005    0.0030   -0.0006    0.0042
    83 C8     *d0        0.0018   -0.0145   -0.0008   -0.0006   -0.0006   -0.0072
    84 C8     *d1+      -0.0058    0.0067    0.0008   -0.0024   -0.0008   -0.0041
    85 C8     *d2+       0.0225    0.0043   -0.0020    0.0001    0.0010    0.0002
    86 H9     1s        -0.2875    0.1910   -0.0075    0.0166   -0.0007    0.0391
    87 H9     *s         0.0541   -0.0340    0.0257   -0.0176   -0.0111   -0.0298
    88 H9     *px        0.0019    0.0075   -0.0003   -0.0003    0.0001   -0.0003
    89 H9     *py       -0.0095    0.0039    0.0003    0.0013   -0.0005    0.0008
    90 H9     *pz       -0.0003   -0.0049    0.0023   -0.0001   -0.0017   -0.0009
    91 H10    1s         0.2564    0.2333    0.0079    0.0172   -0.0004    0.0396
    92 H10    *s        -0.0488   -0.0418   -0.0244   -0.0191    0.0135   -0.0305
    93 H10    *px       -0.0079   -0.0070   -0.0000   -0.0013   -0.0004   -0.0008
    94 H10    *py        0.0048   -0.0060   -0.0002    0.0006    0.0005    0.0004
    95 H10    *pz        0.0007   -0.0042   -0.0021    0.0001    0.0020   -0.0010
    96 H11    1s         0.0146   -0.0385   -0.0042   -0.0476   -0.0051   -0.0819
    97 H11    *s        -0.0040    0.0228   -0.0005   -0.0037    0.0010   -0.0532
    98 H11    *px        0.0044    0.0046    0.0002   -0.0011   -0.0003   -0.0021
    99 H11    *py        0.0038   -0.0053    0.0003    0.0014   -0.0001    0.0027
   100 H11    *pz        0.0005   -0.0060    0.0000    0.0002    0.0000    0.0016
   101 C12    1s        -0.0000    0.0005    0.0012    0.0006   -0.0002    0.0011
   102 C12    2s         0.0784    0.0544   -0.0451   -0.0110    0.0602   -0.0167
   103 C12    *s         0.0249    0.0097   -0.0397    0.0077    0.0022   -0.0286
   104 C12    2px        0.3396    0.2595   -0.0877   -0.0270    0.0890   -0.0316
   105 C12    *px       -0.0405   -0.0286   -0.0115   -0.0124   -0.0169   -0.0039
   106 C12    2py        0.2285   -0.1396    0.0119   -0.0019   -0.0137   -0.0056
   107 C12    *py       -0.0226    0.0122    0.0115    0.0090    0.0038   -0.0160
   108 C12    2pz       -0.0661   -0.1819   -0.0031    0.0024    0.0271   -0.0035
   109 C12    *pz        0.0087    0.0113    0.0090    0.0081   -0.0133   -0.0097
   110 C12    *d2-      -0.0089    0.0149    0.0013   -0.0004    0.0002    0.0008
   111 C12    *d1-      -0.0005   -0.0094   -0.0007   -0.0001    0.0023   -0.0011
   112 C12    *d0        0.0001   -0.0107    0.0018    0.0014   -0.0030   -0.0002
   113 C12    *d1+      -0.0001    0.0113   -0.0016   -0.0002   -0.0014   -0.0032
   114 C12    *d2+       0.0209    0.0045   -0.0025   -0.0012    0.0018   -0.0002
   115 H13    1s        -0.3247    0.0967   -0.0019   -0.0019    0.0158   -0.0041
   116 H13    *s         0.0600   -0.0172    0.0211   -0.0016   -0.0278   -0.0063
   117 H13    *px        0.0006    0.0070    0.0009    0.0002   -0.0005   -0.0011
   118 H13    *py       -0.0105    0.0004   -0.0009   -0.0004    0.0003   -0.0004
   119 H13    *pz        0.0004   -0.0041    0.0007    0.0003   -0.0004    0.0005
   120 H14    1s         0.0528    0.0340    0.0303    0.0003   -0.0543   -0.0026
   121 H14    *s        -0.0177   -0.0115    0.0003   -0.0038   -0.0040   -0.0054
   122 H14    *px        0.0074    0.0057   -0.0022   -0.0017    0.0019   -0.0015
   123 H14    *py        0.0036   -0.0036   -0.0008   -0.0002    0.0006   -0.0001
   124 H14    *pz        0.0009   -0.0023    0.0015   -0.0007   -0.0015    0.0006
   125 H15    1s        -0.0314   -0.3346    0.0108    0.0104    0.0139    0.0145
   126 H15    *s         0.0047    0.0683   -0.0166   -0.0153   -0.0057    0.0370
   127 H15    *px        0.0056   -0.0031   -0.0018    0.0005    0.0021    0.0001
   128 H15    *py        0.0060    0.0042    0.0010   -0.0001   -0.0003   -0.0007
   129 H15    *pz        0.0005    0.0088   -0.0009   -0.0002   -0.0002   -0.0008
   130 H16    1s        -0.0434    0.0317   -0.0301    0.0033    0.0580   -0.0020
   131 H16    *s         0.0170   -0.0105   -0.0014   -0.0021    0.0045   -0.0050
   132 H16    *px        0.0047    0.0026   -0.0011    0.0005    0.0014    0.0005
   133 H16    *py        0.0069   -0.0055   -0.0018    0.0016    0.0019    0.0015
   134 H16    *pz       -0.0008   -0.0020   -0.0017   -0.0008    0.0013    0.0005
--
 
      Von Neumann Entropy (Root   1) =  0.23464
 

      Mulliken population analysis for root number:  1
      -----------------------------------------------
 
 
++    Molecular charges:
      ------------------
 
      Mulliken charges per centre and basis function type
      ---------------------------------------------------
 
                C1      C2      H3      H4      O1      O2      H7      C8      H9      H10     H11     C12   
      1s       2.0044  2.0039  1.2576  1.2662  2.0019  2.0011  1.0634  2.0040  1.2655  1.2662  1.2704  2.0039
      2s       1.3841  1.4507  0.0000  0.0000  1.8313  1.8630  0.0000  1.4512  0.0000  0.0000  0.0000  1.4505
      2px      1.0659  1.1628  0.0000  0.0000  1.6790  1.6017  0.0000  1.1562  0.0000  0.0000  0.0000  1.0954
      2pz      0.8889  1.1743  0.0000  0.0000  1.1234  1.1634  0.0000  1.1189  0.0000  0.0000  0.0000  1.1753
      2py      1.0529  1.1058  0.0000  0.0000  1.5802  1.6850  0.0000  1.1464  0.0000  0.0000  0.0000  1.1724
      *s      -0.1881 -0.4524 -0.3320 -0.3273  0.0384 -0.0782 -0.3204 -0.4544 -0.3292 -0.3282 -0.3204 -0.4535
      *px     -0.0735 -0.1779  0.0074  0.0209  0.0549 -0.0200  0.0300 -0.1771  0.0061  0.0210  0.0067 -0.1805
      *pz     -0.0857 -0.1837  0.0153  0.0055 -0.0661 -0.0994  0.0277 -0.1864  0.0048  0.0047  0.0169 -0.1865
      *py     -0.0787 -0.1786  0.0087  0.0042  0.0475  0.0352  0.0197 -0.1774  0.0198  0.0050  0.0068 -0.1756
      *d2+     0.0406  0.0180  0.0000  0.0000  0.0015  0.0016  0.0000  0.0175  0.0000  0.0000  0.0000  0.0173
      *d1+     0.0329  0.0053  0.0000  0.0000  0.0051  0.0063  0.0000  0.0085  0.0000  0.0000  0.0000  0.0097
      *d0      0.0310  0.0121  0.0000  0.0000  0.0034  0.0013  0.0000  0.0134  0.0000  0.0000  0.0000  0.0120
      *d1-     0.0381  0.0127  0.0000  0.0000  0.0064  0.0039  0.0000  0.0118  0.0000  0.0000  0.0000  0.0084
      *d2-     0.0254  0.0088  0.0000  0.0000  0.0022  0.0020  0.0000  0.0056  0.0000  0.0000  0.0000  0.0094
      Total    6.1380  5.9619  0.9570  0.9696  8.3090  8.1668  0.8203  5.9382  0.9670  0.9686  0.9805  5.9581
 
      N-E     -0.1380  0.0381  0.0430  0.0304 -0.3090 -0.1668  0.1797  0.0618  0.0330  0.0314  0.0195  0.0419
 
[...]
   112 C12    *d0        0.0001   -0.0118    0.0019    0.0020   -0.0034    0.0010
   113 C12    *d1+      -0.0003    0.0075   -0.0010    0.0006   -0.0015   -0.0045
   114 C12    *d2+       0.0211    0.0047   -0.0028   -0.0011    0.0016   -0.0009
   115 H13    1s        -0.3266    0.1109   -0.0031   -0.0022    0.0139   -0.0003
   116 H13    *s         0.0598   -0.0181    0.0209   -0.0005   -0.0291   -0.0031
   117 H13    *px        0.0008    0.0074    0.0008    0.0001   -0.0004   -0.0011
   118 H13    *py       -0.0106    0.0007   -0.0008   -0.0003    0.0001   -0.0003
   119 H13    *pz        0.0005   -0.0035    0.0009    0.0001   -0.0001    0.0003
   120 H14    1s         0.0544   -0.0211    0.0341    0.0064   -0.0551   -0.0052
   121 H14    *s        -0.0190   -0.0027    0.0022   -0.0023   -0.0040   -0.0035
   122 H14    *px        0.0075    0.0047   -0.0020   -0.0018    0.0019   -0.0017
   123 H14    *py        0.0036   -0.0031   -0.0007   -0.0003    0.0007   -0.0003
   124 H14    *pz        0.0007   -0.0035    0.0017   -0.0007   -0.0014    0.0006
   125 H15    1s        -0.0392   -0.3136    0.0096    0.0045    0.0222    0.0130
   126 H15    *s         0.0084    0.0655   -0.0198   -0.0128   -0.0153    0.0273
   127 H15    *px        0.0057   -0.0021   -0.0024    0.0009    0.0013    0.0001
   128 H15    *py        0.0062    0.0037    0.0008    0.0001   -0.0004   -0.0005
   129 H15    *pz        0.0005    0.0087   -0.0012    0.0003   -0.0011   -0.0007
   130 H16    1s        -0.0565   -0.0252   -0.0381    0.0046    0.0576   -0.0076
   131 H16    *s         0.0200   -0.0015   -0.0034   -0.0019    0.0041   -0.0025
   132 H16    *px        0.0048    0.0021   -0.0013    0.0006    0.0012    0.0006
   133 H16    *py        0.0070   -0.0049   -0.0020    0.0015    0.0018    0.0014
   134 H16    *pz       -0.0013   -0.0034   -0.0015   -0.0010    0.0012    0.0003
--
 
      Von Neumann Entropy (Root   1) =  0.23721
 

      Mulliken population analysis for root number:  1
      -----------------------------------------------
 
 
++    Molecular charges:
      ------------------
 
      Mulliken charges per centre and basis function type
      ---------------------------------------------------
 
                C1      C2      H3      H4      O1      O2      H7      C8      H9      H10     H11     C12   
      1s       2.0043  2.0039  1.2581  1.2659  2.0019  2.0011  1.0684  2.0039  1.2659  1.2659  1.2650  2.0039
      2s       1.3847  1.4502  0.0000  0.0000  1.8253  1.8642  0.0000  1.4513  0.0000  0.0000  0.0000  1.4496
      2px      1.0631  1.1628  0.0000  0.0000  1.6789  1.7018  0.0000  1.1579  0.0000  0.0000  0.0000  1.0968
      2pz      0.8787  1.1731  0.0000  0.0000  1.1189  1.1078  0.0000  1.1203  0.0000  0.0000  0.0000  1.1735
      2py      1.0605  1.1049  0.0000  0.0000  1.6115  1.6427  0.0000  1.1459  0.0000  0.0000  0.0000  1.1700
      *s      -0.1919 -0.4459 -0.3336 -0.3276  0.0328 -0.0863 -0.3237 -0.4530 -0.3286 -0.3289 -0.3228 -0.4455
      *px     -0.0799 -0.1763  0.0072  0.0209  0.0581  0.0137  0.0268 -0.1761  0.0060  0.0210  0.0068 -0.1770
      *pz     -0.0986 -0.1856  0.0152  0.0055 -0.0662 -0.1060  0.0256 -0.1901  0.0049  0.0048  0.0171 -0.1850
      *py     -0.0780 -0.1765  0.0087  0.0042  0.0505 -0.0010  0.0267 -0.1767  0.0198  0.0050  0.0066 -0.1747
      *d2+     0.0393  0.0180  0.0000  0.0000  0.0012  0.0011  0.0000  0.0177  0.0000  0.0000  0.0000  0.0171
      *d1+     0.0325  0.0055  0.0000  0.0000  0.0051  0.0047  0.0000  0.0085  0.0000  0.0000  0.0000  0.0097
      *d0      0.0358  0.0122  0.0000  0.0000  0.0039  0.0014  0.0000  0.0137  0.0000  0.0000  0.0000  0.0120
      *d1-     0.0360  0.0123  0.0000  0.0000  0.0058  0.0056  0.0000  0.0114  0.0000  0.0000  0.0000  0.0084
      *d2-     0.0234  0.0087  0.0000  0.0000  0.0016  0.0025  0.0000  0.0054  0.0000  0.0000  0.0000  0.0094
      Total    6.1100  5.9673  0.9557  0.9690  8.3292  8.1533  0.8237  5.9402  0.9680  0.9678  0.9727  5.9684
 
      N-E     -0.1100  0.0327  0.0443  0.0310 -0.3292 -0.1533  0.1763  0.0598  0.0320  0.0322  0.0273  0.0316
 
                H13     H14     H15     H16   
      1s       1.2660  1.2692  1.2573  1.2693
      2s       0.0000  0.0000  0.0000  0.0000
      2px      0.0000  0.0000  0.0000  0.0000
      2pz      0.0000  0.0000  0.0000  0.0000
      2py      0.0000  0.0000  0.0000  0.0000
      *s      -0.3275 -0.3245 -0.3341 -0.3245
      *px      0.0053  0.0071  0.0065  0.0069
      *pz      0.0057  0.0165  0.0152  0.0166
      *py      0.0197  0.0072  0.0095  0.0074
      *d2+     0.0000  0.0000  0.0000  0.0000
      *d1+     0.0000  0.0000  0.0000  0.0000
      *d0      0.0000  0.0000  0.0000  0.0000
      *d1-     0.0000  0.0000  0.0000  0.0000
      *d2-     0.0000  0.0000  0.0000  0.0000
      Total    0.9692  0.9755  0.9544  0.9756
 
      N-E      0.0308  0.0245  0.0456  0.0244
 
      Total electronic charge=   50.000000
 
      Total            charge=   -0.000000
--
 
 

      Expectation values of various properties for root number:  1
      -----------------------------------------------------------
 
 
++    Molecular properties:
      ---------------------
 
      Charge (e):
                      =   -0.0000
      Dipole Moment (Debye):
      Origin of the operator (Ang)=    0.0000    0.0000    0.0000
                   X=  1.6805E-01               Y= -2.0148E-01               Z= -3.3118E-01           Total=  4.2251E-01
      Quadrupole Moment (Debye*Ang):
      Origin of the operator (Ang)=    0.0300    0.0791   -0.0030
                  XX= -3.8776E+01              XY= -2.6585E-01              XZ=  1.7920E+00              YY= -3.8886E+01
                  YZ= -1.7150E+00              ZZ= -3.3584E+01
      In traceless form (Debye*Ang)
                  XX= -2.5410E+00              XY= -3.9877E-01              XZ=  2.6880E+00              YY= -2.7056E+00
                  YZ= -2.5725E+00              ZZ=  5.2466E+00
--
 
      Von Neumann Entropy (Root   2) =  1.06288
 

      Mulliken population analysis for root number:  2
      -----------------------------------------------
 
 
++    Molecular charges:
      ------------------
 
      Mulliken charges per centre and basis function type
      ---------------------------------------------------
 
                C1      C2      H3      H4      O1      O2      H7      C8      H9      H10     H11     C12   
      1s       2.0043  2.0039  1.2582  1.2660  2.0019  2.0011  1.0723  2.0039  1.2657  1.2656  1.2698  2.0039
      2s       1.3870  1.4493  0.0000  0.0000  1.8544  1.8854  0.0000  1.4531  0.0000  0.0000  0.0000  1.4490
      2px      1.0668  1.1629  0.0000  0.0000  1.4720  1.5115  0.0000  1.1586  0.0000  0.0000  0.0000  1.0915
      2pz      0.8896  1.1732  0.0000  0.0000  1.3476  1.3707  0.0000  1.1227  0.0000  0.0000  0.0000  1.1735
      2py      1.0641  1.0985  0.0000  0.0000  1.5021  1.5226  0.0000  1.1476  0.0000  0.0000  0.0000  1.1700
      *s      -0.1924 -0.4458 -0.3333 -0.3283  0.0340 -0.0928 -0.3058 -0.4537 -0.3281 -0.3280 -0.3208 -0.4454
      *px     -0.0814 -0.1761  0.0072  0.0209  0.0512  0.0057  0.0246 -0.1758  0.0061  0.0210  0.0068 -0.1771
      *pz     -0.0978 -0.1858  0.0152  0.0055 -0.0409 -0.0732  0.0299 -0.1888  0.0049  0.0048  0.0172 -0.1851
      *py     -0.0796 -0.1767  0.0086  0.0043  0.0512 -0.0038  0.0255 -0.1763  0.0198  0.0050  0.0066 -0.1745
      *d2+     0.0357  0.0180  0.0000  0.0000  0.0013  0.0012  0.0000  0.0176  0.0000  0.0000  0.0000  0.0171
      *d1+     0.0314  0.0055  0.0000  0.0000  0.0053  0.0048  0.0000  0.0086  0.0000  0.0000  0.0000  0.0098
      *d0      0.0405  0.0122  0.0000  0.0000  0.0065  0.0039  0.0000  0.0146  0.0000  0.0000  0.0000  0.0120
      *d1-     0.0358  0.0124  0.0000  0.0000  0.0064  0.0062  0.0000  0.0115  0.0000  0.0000  0.0000  0.0084
      *d2-     0.0243  0.0087  0.0000  0.0000  0.0015  0.0024  0.0000  0.0054  0.0000  0.0000  0.0000  0.0094
      Total    6.1283  5.9602  0.9560  0.9683  8.2945  8.1458  0.8467  5.9490  0.9683  0.9683  0.9797  5.9627
 
      N-E     -0.1283  0.0398  0.0440  0.0317 -0.2945 -0.1458  0.1533  0.0510  0.0317  0.0317  0.0203  0.0373
 
                H13     H14     H15     H16   
      1s       1.2661  1.2682  1.2575  1.2681
      2s       0.0000  0.0000  0.0000  0.0000
      2px      0.0000  0.0000  0.0000  0.0000
      2pz      0.0000  0.0000  0.0000  0.0000
      2py      0.0000  0.0000  0.0000  0.0000
      *s      -0.3281 -0.3245 -0.3338 -0.3246
      *px      0.0053  0.0071  0.0064  0.0069
      *pz      0.0057  0.0165  0.0152  0.0166
      *py      0.0197  0.0072  0.0095  0.0073
      *d2+     0.0000  0.0000  0.0000  0.0000
      *d1+     0.0000  0.0000  0.0000  0.0000
      *d0      0.0000  0.0000  0.0000  0.0000
      *d1-     0.0000  0.0000  0.0000  0.0000
      *d2-     0.0000  0.0000  0.0000  0.0000
      Total    0.9687  0.9744  0.9549  0.9743
 
      N-E      0.0313  0.0256  0.0451  0.0257
 
      Total electronic charge=   50.000000
 
      Total            charge=   -0.000000
--
 
 

      Expectation values of various properties for root number:  2
      -----------------------------------------------------------
 
 
++    Molecular properties:
      ---------------------
 
      Charge (e):
                      =   -0.0000
      Dipole Moment (Debye):
      Origin of the operator (Ang)=    0.0000    0.0000    0.0000
                   X=  1.9144E-01               Y= -2.1233E-01               Z= -4.1038E-01           Total=  5.0015E-01
      Quadrupole Moment (Debye*Ang):
      Origin of the operator (Ang)=    0.0300    0.0791   -0.0030
                  XX= -3.8166E+01              XY=  2.7802E-01              XZ=  2.0915E+00              YY= -3.8425E+01
                  YZ= -2.2387E+00              ZZ= -3.5498E+01
      In traceless form (Debye*Ang)
                  XX= -1.2042E+00              XY=  4.1703E-01              XZ=  3.1373E+00              YY= -1.5926E+00
                  YZ= -3.3580E+00              ZZ=  2.7968E+00
--
 
      Von Neumann Entropy (Root   3) =  1.15083
 

      Mulliken population analysis for root number:  3
      -----------------------------------------------
 
 
++    Molecular charges:
      ------------------
 
      Mulliken charges per centre and basis function type
      ---------------------------------------------------
 
                C1      C2      H3      H4      O1      O2      H7      C8      H9      H10     H11     C12   
      1s       2.0043  2.0039  1.2585  1.2661  2.0019  2.0011  1.0731  2.0039  1.2657  1.2656  1.2699  2.0039
      2s       1.3872  1.4493  0.0000  0.0000  1.8558  1.8895  0.0000  1.4530  0.0000  0.0000  0.0000  1.4490
      2px      1.0670  1.1628  0.0000  0.0000  1.5087  1.4518  0.0000  1.1586  0.0000  0.0000  0.0000  1.0938
      2pz      0.8905  1.1732  0.0000  0.0000  1.3129  1.4134  0.0000  1.1225  0.0000  0.0000  0.0000  1.1737
      2py      1.0645  1.1013  0.0000  0.0000  1.5186  1.4785  0.0000  1.1476  0.0000  0.0000  0.0000  1.1701
      *s      -0.1925 -0.4459 -0.3339 -0.3286  0.0328 -0.0912 -0.3031 -0.4538 -0.3279 -0.3279 -0.3206 -0.4454
      *px     -0.0785 -0.1763  0.0072  0.0209  0.0537  0.0081  0.0244 -0.1758  0.0061  0.0210  0.0068 -0.1770
      *pz     -0.0974 -0.1863  0.0152  0.0055 -0.0399 -0.0613  0.0307 -0.1889  0.0049  0.0048  0.0172 -0.1856
      *py     -0.0775 -0.1767  0.0087  0.0043  0.0527 -0.0007  0.0254 -0.1763  0.0198  0.0050  0.0066 -0.1748
      *d2+     0.0369  0.0180  0.0000  0.0000  0.0009  0.0006  0.0000  0.0177  0.0000  0.0000  0.0000  0.0171
      *d1+     0.0321  0.0055  0.0000  0.0000  0.0055  0.0049  0.0000  0.0086  0.0000  0.0000  0.0000  0.0097
      *d0      0.0404  0.0121  0.0000  0.0000  0.0069  0.0041  0.0000  0.0147  0.0000  0.0000  0.0000  0.0120
      *d1-     0.0363  0.0124  0.0000  0.0000  0.0067  0.0062  0.0000  0.0115  0.0000  0.0000  0.0000  0.0084
      *d2-     0.0242  0.0087  0.0000  0.0000  0.0014  0.0023  0.0000  0.0054  0.0000  0.0000  0.0000  0.0094
      Total    6.1376  5.9620  0.9557  0.9681  8.3186  8.1074  0.8504  5.9486  0.9685  0.9684  0.9799  5.9643
 
      N-E     -0.1376  0.0380  0.0443  0.0319 -0.3186 -0.1074  0.1496  0.0514  0.0315  0.0316  0.0201  0.0357
 
                H13     H14     H15     H16   
      1s       1.2663  1.2675  1.2578  1.2674
      2s       0.0000  0.0000  0.0000  0.0000
      2px      0.0000  0.0000  0.0000  0.0000
      2pz      0.0000  0.0000  0.0000  0.0000
      2py      0.0000  0.0000  0.0000  0.0000
      *s      -0.3286 -0.3245 -0.3342 -0.3246
      *px      0.0053  0.0071  0.0065  0.0069
      *pz      0.0057  0.0165  0.0152  0.0166
      *py      0.0197  0.0072  0.0095  0.0073
      *d2+     0.0000  0.0000  0.0000  0.0000
      *d1+     0.0000  0.0000  0.0000  0.0000
      *d0      0.0000  0.0000  0.0000  0.0000
      *d1-     0.0000  0.0000  0.0000  0.0000
      *d2-     0.0000  0.0000  0.0000  0.0000
      Total    0.9683  0.9737  0.9547  0.9736
 
      N-E      0.0317  0.0263  0.0453  0.0264
 
      Total electronic charge=   50.000000
 
      Total            charge=   -0.000000
--
 
 

      Expectation values of various properties for root number:  3
      -----------------------------------------------------------
 
 
++    Molecular properties:
      ---------------------
 
      Charge (e):
                      =   -0.0000
      Dipole Moment (Debye):
      Origin of the operator (Ang)=    0.0000    0.0000    0.0000
                   X=  1.0139E-01               Y= -9.8500E-02               Z= -1.3219E-01           Total=  1.9353E-01
      Quadrupole Moment (Debye*Ang):
      Origin of the operator (Ang)=    0.0300    0.0791   -0.0030
                  XX= -3.8162E+01              XY=  4.5164E-01              XZ=  2.1915E+00              YY= -3.8478E+01
                  YZ= -2.3437E+00              ZZ= -3.5257E+01
      In traceless form (Debye*Ang)
                  XX= -1.2943E+00              XY=  6.7745E-01              XZ=  3.2873E+00              YY= -1.7689E+00
                  YZ= -3.5156E+00              ZZ=  3.0632E+00
--
 
      Von Neumann Entropy (Root   4) =  0.73386
 

      Mulliken population analysis for root number:  4
      -----------------------------------------------
 
 
++    Molecular charges:
      ------------------
 
      Mulliken charges per centre and basis function type
      ---------------------------------------------------
 
                C1      C2      H3      H4      O1      O2      H7      C8      H9      H10     H11     C12   
      1s       2.0043  2.0039  1.2585  1.2661  2.0019  2.0011  1.0764  2.0039  1.2654  1.2654  1.2741  2.0039
      2s       1.3891  1.4486  0.0000  0.0000  1.8800  1.9069  0.0000  1.4546  0.0000  0.0000  0.0000  1.4484
      2px      1.0700  1.1629  0.0000  0.0000  1.3093  1.2723  0.0000  1.1592  0.0000  0.0000  0.0000  1.0877
      2pz      0.8995  1.1732  0.0000  0.0000  1.5446  1.6810  0.0000  1.1247  0.0000  0.0000  0.0000  1.1736
      2py      1.0674  1.0938  0.0000  0.0000  1.4216  1.3711  0.0000  1.1491  0.0000  0.0000  0.0000  1.1700
      *s      -0.1929 -0.4458 -0.3334 -0.3291  0.0332 -0.0976 -0.2884 -0.4544 -0.3275 -0.3272 -0.3189 -0.4453
      *px     -0.0817 -0.1759  0.0072  0.0209  0.0458 -0.0031  0.0221 -0.1756  0.0061  0.0210  0.0068 -0.1772
      *pz     -0.0972 -0.1861  0.0152  0.0055 -0.0220 -0.0383  0.0345 -0.1876  0.0049  0.0048  0.0173 -0.1854
      *py     -0.0803 -0.1770  0.0086  0.0043  0.0519 -0.0068  0.0241 -0.1761  0.0198  0.0050  0.0067 -0.1745
      *d2+     0.0329  0.0180  0.0000  0.0000  0.0012  0.0010  0.0000  0.0176  0.0000  0.0000  0.0000  0.0171
      *d1+     0.0307  0.0055  0.0000  0.0000  0.0056  0.0050  0.0000  0.0087  0.0000  0.0000  0.0000  0.0099
      *d0      0.0446  0.0122  0.0000  0.0000  0.0090  0.0062  0.0000  0.0154  0.0000  0.0000  0.0000  0.0120
      *d1-     0.0358  0.0125  0.0000  0.0000  0.0072  0.0067  0.0000  0.0116  0.0000  0.0000  0.0000  0.0084
      *d2-     0.0250  0.0087  0.0000  0.0000  0.0014  0.0022  0.0000  0.0054  0.0000  0.0000  0.0000  0.0094
      Total    6.1471  5.9545  0.9561  0.9677  8.2907  8.1077  0.8686  5.9566  0.9686  0.9689  0.9859  5.9581
 
      N-E     -0.1471  0.0455  0.0439  0.0323 -0.2907 -0.1077  0.1314  0.0434  0.0314  0.0311  0.0141  0.0419
 
                H13     H14     H15     H16   
      1s       1.2662  1.2671  1.2578  1.2669
      2s       0.0000  0.0000  0.0000  0.0000
      2px      0.0000  0.0000  0.0000  0.0000
      2pz      0.0000  0.0000  0.0000  0.0000
      2py      0.0000  0.0000  0.0000  0.0000
      *s      -0.3288 -0.3245 -0.3337 -0.3246
      *px      0.0053  0.0071  0.0064  0.0069
      *pz      0.0057  0.0165  0.0151  0.0166
      *py      0.0197  0.0072  0.0095  0.0073
      *d2+     0.0000  0.0000  0.0000  0.0000
      *d1+     0.0000  0.0000  0.0000  0.0000
      *d0      0.0000  0.0000  0.0000  0.0000
      *d1-     0.0000  0.0000  0.0000  0.0000
      *d2-     0.0000  0.0000  0.0000  0.0000
      Total    0.9680  0.9733  0.9552  0.9729
 
      N-E      0.0320  0.0267  0.0448  0.0271
 
      Total electronic charge=   50.000000
 
      Total            charge=   -0.000000
--
 
 

      Expectation values of various properties for root number:  4
      -----------------------------------------------------------
 
 
++    Molecular properties:
      ---------------------
 
      Charge (e):
                      =   -0.0000
      Dipole Moment (Debye):
      Origin of the operator (Ang)=    0.0000    0.0000    0.0000
                   X=  1.2810E-01               Y= -1.1708E-01               Z= -2.5121E-01           Total=  3.0532E-01
      Quadrupole Moment (Debye*Ang):
      Origin of the operator (Ang)=    0.0300    0.0791   -0.0030
                  XX= -3.7602E+01              XY=  9.2888E-01              XZ=  2.3730E+00              YY= -3.8038E+01
                  YZ= -2.7103E+00              ZZ= -3.6791E+01
      In traceless form (Debye*Ang)
                  XX= -1.8792E-01              XY=  1.3933E+00              XZ=  3.5594E+00              YY= -8.4165E-01
                  YZ= -4.0654E+00              ZZ=  1.0296E+00
--
 
 
      Input file to MOLDEN was generated!
 
 
      Input file to MOLDEN was generated!
 
 
      Input file to MOLDEN was generated!
 
 
      Input file to MOLDEN was generated!
 
 
      Input file to MOLDEN was generated!
 
      Average orbitals are written to the RASORB file
      Natural orbitals for root   1 are written to the RASORB.1 file
      Natural orbitals for root   2 are written to the RASORB.2 file
      Natural orbitals for root   3 are written to the RASORB.3 file
      Natural orbitals for root   4 are written to the RASORB.4 file
      Spin density orbitals for root   1 are written to the SPDORB.1 file
      Spin density orbitals for root   2 are written to the SPDORB.2 file
      Spin density orbitals for root   3 are written to the SPDORB.3 file
      Spin density orbitals for root   4 are written to the SPDORB.4 file
 
--- Stop Module: last_energy at Wed Jul  8 11:48:25 2026 /rc=_RC_ALL_IS_WELL_ ---
*** files: relaxed_scan_tbhp_casscf.rasscf.molden relaxed_scan_tbhp_casscf.rasscf.molden.1 relaxed_scan_tbhp_casscf.rasscf.molden.2 relaxed_scan_tbhp_casscf.rasscf.molden.3
           relaxed_scan_tbhp_casscf.rasscf.molden.4 relaxed_scan_tbhp_casscf.RasOrb relaxed_scan_tbhp_casscf.RasOrb.1 relaxed_scan_tbhp_casscf.RasOrb.2
           relaxed_scan_tbhp_casscf.RasOrb.3 relaxed_scan_tbhp_casscf.RasOrb.4 relaxed_scan_tbhp_casscf.SpdOrb.1 relaxed_scan_tbhp_casscf.SpdOrb.2 relaxed_scan_tbhp_casscf.SpdOrb.3
           relaxed_scan_tbhp_casscf.SpdOrb.4 xmldump
    saved to directory /vscratch/grp-cyberwksp21/hclifford/openmolcas/PES/runs_relaxed_s1/R_1p45
--- Module last_energy spent 36 seconds ---

>>> END DO

.##################.
.# Happy landing! #.
.##################.

    Timing: Wall=1235.46 User=963.84 System=194.19
