[Molden Format]
[N_Atoms]
                    16
[Atoms] (AU)
C1          1      6          -0.05429183      0.07636383     -0.84489655
C2          2      6           0.84416901      2.81125674     -0.84126828
H3          3      1           0.07599723      3.82732279      0.77135219
H4          4      1           2.90009465      2.88938747     -0.76515011
O5          5      8           0.95042075     -1.26215942      1.31391335
O6          6      8          -0.04121493     -0.12108420      3.61172772
H7          7      1           1.49116966      0.60046804      4.28620499
C8          8      6           1.10016642     -1.39527739     -3.03302933
H9          9      1           0.52425349     -3.36758455     -2.95594740
H10        10      1           3.15389999     -1.30408488     -2.96762591
H11        11      1           0.46327959     -0.59307921     -4.81706307
C12        12      6          -2.92627870     -0.10121751     -0.86621266
H13        13      1          -3.51560869     -2.07185604     -0.85381606
H14        14      1          -3.68116759      0.80208858     -2.55515538
H15        15      1          -3.71869755      0.83049873      0.78368643
H16        16      1           0.22279115      3.76640558     -2.55513649
[5D]
[Charge] (Mulliken)
 -0.150832807501979     
  3.928137458098391E-002
  3.437310270129601E-002
  3.225021954258001E-002
 -0.302786340505243     
 -0.123555229375940     
  0.143126415019135     
  5.540829354278642E-002
  3.556860295382680E-002
  2.946009309030373E-002
  5.263617978248147E-003
  5.528053485149176E-002
  3.749050707873436E-002
  2.773472261711196E-002
  4.506538322098574E-002
  3.687151020393342E-002
[GTO] (AU)
   1
   s   9
  0.666500000E+04  0.692000179E-03
  0.100000000E+04  0.532900138E-02
  0.228000000E+03  0.270770070E-01
  0.647100000E+02  0.101718026E+00
  0.210600000E+02  0.274740071E+00
  0.749500000E+01  0.448564116E+00
  0.279700000E+01  0.285074074E+00
  0.521500000E+00  0.152040039E-01
  0.159600000E+00 -0.319100083E-02
   s   9
  0.666500000E+04 -0.146000064E-03
  0.100000000E+04 -0.115400051E-02
  0.228000000E+03 -0.572500252E-02
  0.647100000E+02 -0.233120103E-01
  0.210600000E+02 -0.639550281E-01
  0.749500000E+01 -0.149981066E+00
  0.279700000E+01 -0.127262056E+00
  0.521500000E+00  0.544529240E+00
  0.159600000E+00  0.580496255E+00
   s   1
  0.159600000E+00  0.100000000E+01
   p   4
  0.943900000E+01  0.381090213E-01
  0.200200000E+01  0.209480117E+00
  0.545600000E+00  0.508557284E+00
  0.151700000E+00  0.468842262E+00
   p   1
  0.151700000E+00  0.100000000E+01
   d   1
  0.550000000E+00  0.100000000E+01
 
   2
   s   9
  0.666500000E+04  0.692000179E-03
  0.100000000E+04  0.532900138E-02
  0.228000000E+03  0.270770070E-01
  0.647100000E+02  0.101718026E+00
  0.210600000E+02  0.274740071E+00
  0.749500000E+01  0.448564116E+00
  0.279700000E+01  0.285074074E+00
  0.521500000E+00  0.152040039E-01
  0.159600000E+00 -0.319100083E-02
   s   9
  0.666500000E+04 -0.146000064E-03
  0.100000000E+04 -0.115400051E-02
  0.228000000E+03 -0.572500252E-02
  0.647100000E+02 -0.233120103E-01
  0.210600000E+02 -0.639550281E-01
  0.749500000E+01 -0.149981066E+00
  0.279700000E+01 -0.127262056E+00
  0.521500000E+00  0.544529240E+00
  0.159600000E+00  0.580496255E+00
   s   1
  0.159600000E+00  0.100000000E+01
   p   4
  0.943900000E+01  0.381090213E-01
  0.200200000E+01  0.209480117E+00
  0.545600000E+00  0.508557284E+00
  0.151700000E+00  0.468842262E+00
   p   1
  0.151700000E+00  0.100000000E+01
   d   1
  0.550000000E+00  0.100000000E+01
 
   3
   s   4
  0.130100000E+02  0.196849900E-01
  0.196200000E+01  0.137976930E+00
  0.444600000E+00  0.478147757E+00
  0.122000000E+00  0.501239745E+00
   s   1
  0.122000000E+00  0.100000000E+01
   p   1
  0.727000000E+00  0.100000000E+01
 
   4
   s   4
  0.130100000E+02  0.196849900E-01
  0.196200000E+01  0.137976930E+00
  0.444600000E+00  0.478147757E+00
  0.122000000E+00  0.501239745E+00
   s   1
  0.122000000E+00  0.100000000E+01
   p   1
  0.727000000E+00  0.100000000E+01
 
   5
   s   9
  0.117200000E+05  0.710000250E-03
  0.175900000E+04  0.547000193E-02
  0.400800000E+03  0.278370098E-01
  0.113700000E+03  0.104800037E+00
  0.370300000E+02  0.283062100E+00
  0.132700000E+02  0.448719158E+00
  0.502500000E+01  0.270952096E+00
  0.101300000E+01  0.154580054E-01
  0.302300000E+00 -0.258500091E-02
   s   9
  0.117200000E+05 -0.160000015E-03
  0.175900000E+04 -0.126300012E-02
  0.400800000E+03 -0.626700060E-02
  0.113700000E+03 -0.257160025E-01
  0.370300000E+02 -0.709240068E-01
  0.132700000E+02 -0.165411016E+00
  0.502500000E+01 -0.116955011E+00
  0.101300000E+01  0.557368054E+00
  0.302300000E+00  0.572759055E+00
   s   1
  0.302300000E+00  0.100000000E+01
   p   4
  0.177000000E+02  0.430179924E-01
  0.385400000E+01  0.228912960E+00
  0.104600000E+01  0.508727910E+00
  0.275300000E+00  0.460530919E+00
   p   1
  0.275300000E+00  0.100000000E+01
   d   1
  0.118500000E+01  0.100000000E+01
 
   6
   s   9
  0.117200000E+05  0.710000250E-03
  0.175900000E+04  0.547000193E-02
  0.400800000E+03  0.278370098E-01
  0.113700000E+03  0.104800037E+00
  0.370300000E+02  0.283062100E+00
  0.132700000E+02  0.448719158E+00
  0.502500000E+01  0.270952096E+00
  0.101300000E+01  0.154580054E-01
  0.302300000E+00 -0.258500091E-02
   s   9
  0.117200000E+05 -0.160000015E-03
  0.175900000E+04 -0.126300012E-02
  0.400800000E+03 -0.626700060E-02
  0.113700000E+03 -0.257160025E-01
  0.370300000E+02 -0.709240068E-01
  0.132700000E+02 -0.165411016E+00
  0.502500000E+01 -0.116955011E+00
  0.101300000E+01  0.557368054E+00
  0.302300000E+00  0.572759055E+00
   s   1
  0.302300000E+00  0.100000000E+01
   p   4
  0.177000000E+02  0.430179924E-01
  0.385400000E+01  0.228912960E+00
  0.104600000E+01  0.508727910E+00
  0.275300000E+00  0.460530919E+00
   p   1
  0.275300000E+00  0.100000000E+01
   d   1
  0.118500000E+01  0.100000000E+01
 
   7
   s   4
  0.130100000E+02  0.196849900E-01
  0.196200000E+01  0.137976930E+00
  0.444600000E+00  0.478147757E+00
  0.122000000E+00  0.501239745E+00
   s   1
  0.122000000E+00  0.100000000E+01
   p   1
  0.727000000E+00  0.100000000E+01
 
   8
   s   9
  0.666500000E+04  0.692000179E-03
  0.100000000E+04  0.532900138E-02
  0.228000000E+03  0.270770070E-01
  0.647100000E+02  0.101718026E+00
  0.210600000E+02  0.274740071E+00
  0.749500000E+01  0.448564116E+00
  0.279700000E+01  0.285074074E+00
  0.521500000E+00  0.152040039E-01
  0.159600000E+00 -0.319100083E-02
   s   9
  0.666500000E+04 -0.146000064E-03
  0.100000000E+04 -0.115400051E-02
  0.228000000E+03 -0.572500252E-02
  0.647100000E+02 -0.233120103E-01
  0.210600000E+02 -0.639550281E-01
  0.749500000E+01 -0.149981066E+00
  0.279700000E+01 -0.127262056E+00
  0.521500000E+00  0.544529240E+00
  0.159600000E+00  0.580496255E+00
   s   1
  0.159600000E+00  0.100000000E+01
   p   4
  0.943900000E+01  0.381090213E-01
  0.200200000E+01  0.209480117E+00
  0.545600000E+00  0.508557284E+00
  0.151700000E+00  0.468842262E+00
   p   1
  0.151700000E+00  0.100000000E+01
   d   1
  0.550000000E+00  0.100000000E+01
 
   9
   s   4
  0.130100000E+02  0.196849900E-01
  0.196200000E+01  0.137976930E+00
  0.444600000E+00  0.478147757E+00
  0.122000000E+00  0.501239745E+00
   s   1
  0.122000000E+00  0.100000000E+01
   p   1
  0.727000000E+00  0.100000000E+01
 
  10
   s   4
  0.130100000E+02  0.196849900E-01
  0.196200000E+01  0.137976930E+00
  0.444600000E+00  0.478147757E+00
  0.122000000E+00  0.501239745E+00
   s   1
  0.122000000E+00  0.100000000E+01
   p   1
  0.727000000E+00  0.100000000E+01
 
  11
   s   4
  0.130100000E+02  0.196849900E-01
  0.196200000E+01  0.137976930E+00
  0.444600000E+00  0.478147757E+00
  0.122000000E+00  0.501239745E+00
   s   1
  0.122000000E+00  0.100000000E+01
   p   1
  0.727000000E+00  0.100000000E+01
 
  12
   s   9
  0.666500000E+04  0.692000179E-03
  0.100000000E+04  0.532900138E-02
  0.228000000E+03  0.270770070E-01
  0.647100000E+02  0.101718026E+00
  0.210600000E+02  0.274740071E+00
  0.749500000E+01  0.448564116E+00
  0.279700000E+01  0.285074074E+00
  0.521500000E+00  0.152040039E-01
  0.159600000E+00 -0.319100083E-02
   s   9
  0.666500000E+04 -0.146000064E-03
  0.100000000E+04 -0.115400051E-02
  0.228000000E+03 -0.572500252E-02
  0.647100000E+02 -0.233120103E-01
  0.210600000E+02 -0.639550281E-01
  0.749500000E+01 -0.149981066E+00
  0.279700000E+01 -0.127262056E+00
  0.521500000E+00  0.544529240E+00
  0.159600000E+00  0.580496255E+00
   s   1
  0.159600000E+00  0.100000000E+01
   p   4
  0.943900000E+01  0.381090213E-01
  0.200200000E+01  0.209480117E+00
  0.545600000E+00  0.508557284E+00
  0.151700000E+00  0.468842262E+00
   p   1
  0.151700000E+00  0.100000000E+01
   d   1
  0.550000000E+00  0.100000000E+01
 
  13
   s   4
  0.130100000E+02  0.196849900E-01
  0.196200000E+01  0.137976930E+00
  0.444600000E+00  0.478147757E+00
  0.122000000E+00  0.501239745E+00
   s   1
  0.122000000E+00  0.100000000E+01
   p   1
  0.727000000E+00  0.100000000E+01
 
  14
   s   4
  0.130100000E+02  0.196849900E-01
  0.196200000E+01  0.137976930E+00
  0.444600000E+00  0.478147757E+00
  0.122000000E+00  0.501239745E+00
   s   1
  0.122000000E+00  0.100000000E+01
   p   1
  0.727000000E+00  0.100000000E+01
 
  15
   s   4
  0.130100000E+02  0.196849900E-01
  0.196200000E+01  0.137976930E+00
  0.444600000E+00  0.478147757E+00
  0.122000000E+00  0.501239745E+00
   s   1
  0.122000000E+00  0.100000000E+01
   p   1
  0.727000000E+00  0.100000000E+01
 
  16
   s   4
  0.130100000E+02  0.196849900E-01
  0.196200000E+01  0.137976930E+00
  0.444600000E+00  0.478147757E+00
  0.122000000E+00  0.501239745E+00
   s   1
  0.122000000E+00  0.100000000E+01
   p   1
  0.727000000E+00  0.100000000E+01
 
[MO]
Sym=     1a  
Ene=   -20.5700
Spin= Alpha
Occup=    2.00000
   1        -0.00013794
   2        -0.00051573
   3         0.00079075
   4         0.00005253
   5        -0.00009997
   6        -0.00013738
   7        -0.00048364
   8         0.00045811
   9         0.00159037
  10        -0.00001140
  11         0.00009816
  12        -0.00013035
  13        -0.00000714
  14        -0.00005308
  15         0.00000340
  16        -0.00001361
  17        -0.00042071
  18         0.00003787
  19         0.00005747
  20        -0.00003159
  21         0.00014378
  22         0.00001735
  23        -0.00009340
  24        -0.00001396
  25        -0.00000229
  26         0.00010487
  27        -0.00001295
  28        -0.00002229
  29        -0.00014195
  30         0.00020051
  31         0.00001246
  32         0.00003579
  33         0.00000107
  34         0.00006660
  35        -0.00018887
  36         0.00001320
  37         0.00002356
  38        -0.00001751
  39         0.00429653
  40        -0.00006705
  41         0.00021016
  42         0.00020033
  43        -0.00009432
  44        -0.00025210
  45        -0.00003615
  46         0.00009863
  47         0.00091877
  48         0.00001010
  49        -0.00001183
  50         0.00004543
  51        -0.00001233
  52         0.00002129
  53         1.00056315
  54         0.00281277
  55        -0.00317148
  56         0.00183393
  57         0.00065658
  58         0.00025882
  59        -0.00164787
  60        -0.00024919
  61         0.00068070
  62        -0.00011896
  63         0.00013419
  64         0.00001771
  65         0.00012606
  66         0.00013110
  67         0.00006149
  68         0.00040109
  69         0.00065309
  70         0.00027051
  71         0.00015064
  72        -0.00011080
  73        -0.00041848
  74         0.00152988
  75        -0.00002612
  76         0.00002844
  77        -0.00001797
  78        -0.00021764
  79         0.00030540
  80         0.00051968
  81         0.00003709
  82        -0.00002441
  83         0.00003234
  84        -0.00001183
  85        -0.00003770
  86        -0.00013914
  87         0.00007720
  88         0.00000328
  89        -0.00000721
  90        -0.00002761
  91        -0.00013750
  92         0.00007912
  93         0.00000390
  94        -0.00000191
  95        -0.00002360
  96        -0.00006218
  97         0.00014881
  98        -0.00000537
  99         0.00000397
 100         0.00000539
 101         0.00003765
 102         0.00012673
 103        -0.00076894
 104        -0.00003076
 105        -0.00001379
 106        -0.00002010
 107        -0.00016837
 108        -0.00013842
 109        -0.00020202
 110        -0.00000610
 111        -0.00009265
 112         0.00001620
 113        -0.00000346
 114        -0.00002690
 115         0.00007228
 116        -0.00012227
 117        -0.00001617
 118         0.00000662
 119        -0.00000093
 120         0.00015339
 121        -0.00003831
 122         0.00004062
 123        -0.00000613
 124         0.00003452
 125        -0.00005923
 126         0.00020050
 127        -0.00002952
 128        -0.00000961
 129         0.00000063
 130         0.00016401
 131         0.00002177
 132         0.00000463
 133        -0.00004168
 134         0.00004052
Sym=     2a  
Ene=   -20.5570
Spin= Alpha
Occup=    2.00000
   1         0.00023274
   2         0.00077342
   3        -0.00442263
   4        -0.00014393
   5         0.00019231
   6        -0.00045350
   7        -0.00119458
   8         0.00153391
   9        -0.00156033
  10        -0.00017684
  11        -0.00004531
  12         0.00005782
  13         0.00000039
  14        -0.00000620
  15         0.00005095
  16         0.00022415
  17        -0.00007274
  18        -0.00002794
  19        -0.00016817
  20         0.00004649
  21         0.00024329
  22        -0.00001855
  23         0.00030760
  24        -0.00003278
  25        -0.00008745
  26        -0.00002993
  27        -0.00007786
  28        -0.00004841
  29        -0.00007080
  30         0.00009917
  31        -0.00001476
  32        -0.00007026
  33         0.00002225
  34         0.00008029
  35        -0.00006562
  36        -0.00003795
  37        -0.00008602
  38         0.00001468
  39        -1.00091288
  40        -0.00407333
  41         0.00681600
  42         0.00083941
  43        -0.00113880
  44         0.00086422
  45        -0.00148392
  46         0.00198977
  47        -0.00153023
  48         0.00010601
  49         0.00005512
  50        -0.00008355
  51        -0.00001814
  52        -0.00003460
  53         0.00434929
  54         0.00020866
  55        -0.00063031
  56         0.00015030
  57        -0.00016616
  58        -0.00011343
  59        -0.00009732
  60         0.00011689
  61         0.00040692
  62        -0.00007181
  63         0.00000127
  64        -0.00000689
  65        -0.00000343
  66        -0.00004445
  67         0.00008237
  68        -0.00022522
  69         0.00003496
  70         0.00000946
  71         0.00003220
  72        -0.00000282
  73         0.00003936
  74         0.00100267
  75        -0.00005278
  76         0.00007121
  77         0.00021989
  78         0.00000389
  79        -0.00002830
  80         0.00053322
  81        -0.00001291
  82        -0.00007962
  83         0.00010510
  84         0.00001638
  85         0.00004923
  86        -0.00009225
  87         0.00007811
  88        -0.00003202
  89         0.00002023
  90         0.00007920
  91        -0.00009728
  92         0.00009590
  93        -0.00001040
  94         0.00003618
  95         0.00007777
  96         0.00004736
  97        -0.00005648
  98         0.00004492
  99        -0.00005315
 100        -0.00003924
 101         0.00005293
 102         0.00023132
 103        -0.00006963
 104         0.00017276
 105        -0.00002302
 106         0.00004985
 107        -0.00008897
 108        -0.00019888
 109         0.00029430
 110        -0.00002950
 111         0.00004692
 112         0.00007625
 113         0.00004198
 114        -0.00007874
 115         0.00009385
 116        -0.00006945
 117         0.00009447
 118         0.00001065
 119         0.00001697
 120         0.00005033
 121        -0.00009487
 122        -0.00005002
 123         0.00000444
 124        -0.00000914
 125        -0.00005794
 126         0.00003608
 127         0.00007424
 128        -0.00000525
 129         0.00002935
 130         0.00006286
 131        -0.00008239
 132         0.00000558
 133         0.00005102
 134        -0.00000640
Sym=     3a  
Ene=   -11.2850
Spin= Alpha
Occup=    2.00000
   1         1.00209176
   2         0.01055063
   3        -0.01730299
   4         0.00029796
   5        -0.00030238
   6         0.00087448
   7         0.00038887
   8        -0.00054403
   9        -0.00045329
  10         0.00004660
  11        -0.00002121
  12         0.00002682
  13        -0.00000490
  14        -0.00000893
  15         0.00516740
  16        -0.00036181
  17         0.00397715
  18        -0.00013234
  19        -0.00030425
  20        -0.00003111
  21        -0.00043411
  22        -0.00142921
  23         0.00031555
  24         0.00007815
  25         0.00002605
  26        -0.00000925
  27         0.00009405
  28        -0.00002511
  29        -0.00033604
  30         0.00002088
  31        -0.00005237
  32        -0.00005323
  33        -0.00000172
  34        -0.00041093
  35         0.00024042
  36        -0.00000712
  37        -0.00006416
  38        -0.00001957
  39        -0.00003281
  40         0.00024518
  41         0.00086646
  42        -0.00019926
  43         0.00025152
  44        -0.00019233
  45         0.00018536
  46        -0.00022190
  47        -0.00024510
  48        -0.00015977
  49        -0.00009192
  50         0.00012572
  51         0.00003141
  52         0.00011734
  53        -0.00016108
  54        -0.00059658
  55         0.00115739
  56         0.00004437
  57         0.00000623
  58         0.00007191
  59         0.00001970
  60         0.00009032
  61        -0.00067382
  62         0.00009208
  63         0.00000644
  64        -0.00002218
  65         0.00001269
  66         0.00002761
  67        -0.00019715
  68         0.00018538
  69         0.00001528
  70        -0.00001940
  71         0.00009745
  72         0.00444363
  73        -0.00002450
  74         0.00262412
  75        -0.00013594
  76         0.00017308
  77         0.00022662
  78        -0.00034790
  79         0.00046887
  80         0.00080408
  81        -0.00010221
  82         0.00007235
  83        -0.00009164
  84         0.00000169
  85         0.00000376
  86        -0.00025014
  87         0.00013638
  88        -0.00004088
  89         0.00003090
  90         0.00006332
  91        -0.00026192
  92         0.00012710
  93        -0.00001812
  94         0.00004446
  95         0.00006208
  96        -0.00013955
  97         0.00012788
  98        -0.00003232
  99         0.00004077
 100         0.00006743
 101         0.00451106
 102        -0.00037903
 103         0.00399595
 104         0.00034199
 105         0.00005476
 106        -0.00002732
 107         0.00151663
 108         0.00003527
 109         0.00030788
 110         0.00006751
 111        -0.00000267
 112        -0.00003026
 113        -0.00007775
 114         0.00002646
 115        -0.00040908
 116         0.00023487
 117         0.00006364
 118        -0.00000526
 119        -0.00001786
 120        -0.00024232
 121         0.00029311
 122         0.00006505
 123         0.00000562
 124        -0.00000830
 125        -0.00033163
 126         0.00006261
 127         0.00007214
 128         0.00003671
 129        -0.00000441
 130        -0.00024655
 131         0.00030084
 132        -0.00002287
 133        -0.00006160
 134        -0.00001116
Sym=     4a  
Ene=   -11.2270
Spin= Alpha
Occup=    2.00000
   1         0.00531549
   2        -0.00032997
   3        -0.00062347
   4        -0.00008199
   5        -0.00029549
   6        -0.00000391
   7        -0.00060978
   8        -0.00063881
   9        -0.00041667
  10        -0.00010640
  11        -0.00005610
  12         0.00000781
  13        -0.00008836
  14         0.00008403
  15        -1.00192058
  16        -0.01049825
  17         0.01247599
  18        -0.00004603
  19        -0.00022189
  20         0.00008792
  21        -0.00032420
  22        -0.00085392
  23        -0.00019581
  24        -0.00013164
  25        -0.00001190
  26        -0.00000279
  27        -0.00017620
  28         0.00012477
  29        -0.00014158
  30        -0.00101059
  31         0.00021659
  32        -0.00016833
  33        -0.00038008
  34        -0.00012352
  35        -0.00108019
  36        -0.00047316
  37         0.00005439
  38        -0.00000900
  39         0.00003572
  40         0.00016373
  41        -0.00001331
  42        -0.00003450
  43         0.00007619
  44        -0.00003535
  45         0.00002310
  46        -0.00014216
  47         0.00001020
  48         0.00002827
  49        -0.00000078
  50         0.00001132
  51         0.00003355
  52        -0.00002421
  53         0.00003648
  54         0.00014289
  55        -0.00019730
  56         0.00002903
  57         0.00003387
  58        -0.00005977
  59        -0.00016713
  60        -0.00010379
  61         0.00007729
  62         0.00001336
  63        -0.00000100
  64         0.00000230
  65        -0.00000765
  66        -0.00002468
  67         0.00027147
  68        -0.00015213
  69        -0.00002520
  70        -0.00001112
  71        -0.00003318
  72         0.00097938
  73         0.00066864
  74        -0.00133781
  75         0.00003097
  76         0.00015025
  77         0.00001281
  78        -0.00005843
  79        -0.00086070
  80        -0.00013681
  81         0.00006567
  82         0.00002666
  83        -0.00005408
  84         0.00011725
  85        -0.00003454
  86         0.00003375
  87        -0.00039419
  88         0.00000938
  89         0.00002815
  90        -0.00001249
  91         0.00020193
  92         0.00010351
  93         0.00000487
  94         0.00008309
  95         0.00000887
  96         0.00019071
  97         0.00008342
  98         0.00002228
  99         0.00007093
 100        -0.00000504
 101         0.00126449
 102         0.00067933
 103        -0.00147615
 104         0.00005044
 105         0.00013903
 106        -0.00000115
 107        -0.00056682
 108        -0.00072679
 109         0.00006438
 110         0.00010419
 111        -0.00000147
 112         0.00000359
 113         0.00003150
 114        -0.00009874
 115         0.00003372
 116        -0.00039709
 117         0.00000136
 118         0.00002779
 119        -0.00000458
 120         0.00020683
 121         0.00006480
 122         0.00001757
 123         0.00006997
 124         0.00000248
 125         0.00020178
 126         0.00004936
 127         0.00003815
 128         0.00007973
 129        -0.00000372
 130        -0.00020181
 131        -0.00118705
 132         0.00018522
 133        -0.00012896
 134         0.00042285
Sym=     5a  
Ene=   -11.2190
Spin= Alpha
Occup=    2.00000
   1         0.00465847
   2        -0.00035399
   3        -0.00060797
   4         0.00030595
   5         0.00000046
   6        -0.00000987
   7         0.00073296
   8         0.00042864
   9        -0.00038135
  10        -0.00010743
  11         0.00001297
  12         0.00005027
  13         0.00013066
  14         0.00002906
  15        -0.00087191
  16         0.00066037
  17        -0.00147494
  18        -0.00015235
  19        -0.00001442
  20        -0.00000790
  21         0.00088431
  22         0.00032539
  23         0.00009930
  24         0.00010118
  25        -0.00000700
  26         0.00000184
  27        -0.00007925
  28        -0.00006854
  29         0.00020705
  30         0.00006783
  31        -0.00008391
  32        -0.00001404
  33        -0.00001104
  34         0.00001801
  35        -0.00039499
  36        -0.00003030
  37         0.00000646
  38        -0.00000704
  39         0.00004264
  40         0.00018488
  41        -0.00007809
  42        -0.00006481
  43         0.00005013
  44        -0.00003387
  45         0.00015168
  46        -0.00007135
  47        -0.00003671
  48         0.00002007
  49        -0.00001199
  50         0.00000006
  51        -0.00004068
  52        -0.00000288
  53        -0.00000228
  54         0.00001702
  55         0.00020098
  56        -0.00004237
  57        -0.00001279
  58        -0.00006036
  59         0.00022955
  60         0.00009236
  61         0.00016227
  62        -0.00001273
  63         0.00000705
  64         0.00000978
  65         0.00001041
  66         0.00002694
  67        -0.00030152
  68         0.00007079
  69         0.00006763
  70         0.00003676
  71         0.00000776
  72         0.00326819
  73         0.00071535
  74        -0.00137171
  75        -0.00015763
  76         0.00000890
  77         0.00002077
  78         0.00085320
  79        -0.00014238
  80        -0.00016874
  81         0.00006551
  82         0.00004441
  83        -0.00003909
  84        -0.00012202
  85         0.00002553
  86         0.00020570
  87         0.00011309
  88        -0.00008440
  89         0.00001426
  90         0.00001222
  91         0.00004116
  92        -0.00039498
  93        -0.00002964
  94        -0.00000289
  95        -0.00000784
  96         0.00019210
  97         0.00005393
  98        -0.00007427
  99        -0.00000379
 100        -0.00000884
 101        -1.00192469
 102        -0.01052400
 103         0.01248354
 104         0.00013685
 105        -0.00003927
 106         0.00016098
 107         0.00098203
 108         0.00009324
 109        -0.00019052
 110        -0.00013966
 111        -0.00000056
 112         0.00002822
 113         0.00020948
 114         0.00002257
 115        -0.00016450
 116        -0.00106569
 117         0.00005886
 118         0.00045782
 119         0.00000293
 120        -0.00015502
 121        -0.00118374
 122         0.00008482
 123        -0.00023338
 124         0.00043071
 125        -0.00019998
 126        -0.00097700
 127         0.00009959
 128        -0.00022817
 129        -0.00036948
 130         0.00022075
 131         0.00008892
 132        -0.00007642
 133        -0.00000287
 134         0.00000609
Sym=     6a  
Ene=   -11.2160
Spin= Alpha
Occup=    2.00000
   1        -0.00448062
   2         0.00049504
   3         0.00027829
   4         0.00013023
   5        -0.00016332
   6        -0.00024826
   7         0.00037994
   8        -0.00047974
   9        -0.00045115
  10        -0.00000592
  11         0.00005802
  12        -0.00007675
  13         0.00001406
  14         0.00005936
  15         0.00058627
  16        -0.00069760
  17         0.00144167
  18        -0.00005465
  19         0.00009163
  20         0.00011237
  21         0.00023958
  22        -0.00068300
  23        -0.00059501
  24         0.00001355
  25        -0.00005572
  26         0.00010644
  27        -0.00006705
  28        -0.00002213
  29        -0.00001856
  30         0.00040092
  31        -0.00001733
  32         0.00000870
  33         0.00002194
  34        -0.00024084
  35        -0.00009819
  36        -0.00001582
  37         0.00004368
  38         0.00006113
  39        -0.00002570
  40        -0.00012289
  41         0.00007255
  42        -0.00002243
  43         0.00002315
  44         0.00010775
  45         0.00019796
  46        -0.00024080
  47        -0.00068992
  48         0.00005040
  49        -0.00000233
  50         0.00000076
  51         0.00000247
  52         0.00000770
  53        -0.00007023
  54        -0.00024310
  55         0.00067066
  56        -0.00000358
  57         0.00001021
  58         0.00001813
  59         0.00016565
  60        -0.00010960
  61        -0.00024185
  62         0.00001554
  63        -0.00001191
  64         0.00002703
  65         0.00000960
  66        -0.00000174
  67        -0.00013688
  68         0.00006483
  69         0.00002263
  70         0.00001443
  71         0.00002284
  72         1.00196392
  73         0.01064185
  74        -0.01266805
  75         0.00005374
  76        -0.00003617
  77        -0.00025023
  78         0.00045663
  79        -0.00059844
  80        -0.00067889
  81        -0.00008849
  82         0.00014586
  83        -0.00018875
  84         0.00002764
  85         0.00008951
  86         0.00019895
  87         0.00104843
  88        -0.00017918
  89        -0.00041703
  90         0.00010047
  91         0.00017712
  92         0.00105786
  93         0.00045855
  94         0.00007454
  95         0.00009984
  96         0.00017743
  97         0.00110994
  98        -0.00020530
  99         0.00025976
 100        -0.00037863
 101         0.00286607
 102        -0.00068184
 103         0.00142777
 104        -0.00007686
 105         0.00007258
 106         0.00010979
 107         0.00061644
 108        -0.00038774
 109        -0.00058703
 110         0.00001230
 111        -0.00009053
 112         0.00007975
 113         0.00004962
 114        -0.00005057
 115        -0.00024372
 116        -0.00009027
 117        -0.00003664
 118         0.00002297
 119         0.00005726
 120        -0.00020252
 121        -0.00005952
 122        -0.00004599
 123         0.00004307
 124         0.00005954
 125        -0.00002868
 126         0.00041828
 127        -0.00000316
 128         0.00001797
 129         0.00002238
 130        -0.00021322
 131        -0.00005544
 132        -0.00003273
 133         0.00005162
 134         0.00005813
Sym=     7a  
Ene=    -1.4020
Spin= Alpha
Occup=    2.00000
   1        -0.00595132
   2         0.20556292
   3        -0.08973642
   4         0.03468809
   5        -0.04562446
   6         0.08855246
   7        -0.02067069
   8         0.02167473
   9        -0.03731910
  10         0.00504357
  11         0.00926878
  12        -0.01232815
  13        -0.00167049
  14        -0.00621383
  15        -0.00128644
  16         0.04772411
  17        -0.01625361
  18        -0.00624845
  19        -0.02823259
  20         0.00783233
  21         0.00221764
  22         0.00459095