   This run of MOLCAS is using the pymolcas driver

                             OPE
                             OPE          NMOL  CASOP  ENMOLC A   SO
                 OPE        NMOLC        AS  OP EN  MO LC     AS  OP
                OPENM       OL CA        SO  PE NM  OL CA     SOP EN
                OP EN      MO   LC       AS  OP ENMOL  CASO   PENMOL
                OP  EN     MO   LC       AS  OP EN     MO     LC ASO
               OP   E  NMOL  C  AS       OP  EN MO     LC     AS  OP
               OP  E   NMO   LC AS        OPEN  MO     LCASOP EN   M
               O  PEN   MO  LCA  SO
            OPE   NMO   L   CAS    OP
        OPENMOL  CASOP     ENMOL   CASOPE
     OPENMOLCA   SOPENMOLCASOPEN   MOLCASOPE
    OPENMOLCAS   OP           EN   MOL    CAS
    OPENMOLCAS       OP  ENM        O     LCA
    OPENMOLCAS    OPEN  MOLCASO     P  E  NMO
    OPENMOLCAS     OP               E  N  MOL
    OPENMOLCA   SO           PENM   O  L  CAS    OPEN    MO    LCAS
    OPENMOLCA   SOP           ENM   O  L  CAS   OP  EN  MOLC  AS   O
    OPENMOLCA   SOPE           NM      O  LCA   S      OP  EN MO
    OPENMOLC                AS         O  PEN   M      OL  CA  SOPE
    OPENMO        LCASOPE  NMOL        C  ASO   P      ENMOLC     AS
    OPE     NMO      LCA  SO     P     E   NM   OL  CA SO  PE N   MO
          OPENMOLCA            SOPE   NMO        LCAS  O    P  ENMO
     OPENMOLCASOPENMOLCASOPENMOLCASOPENMOLCA
        OPENMOLCASOPENMOLCASOPENMOLCASOPE
            OPENMOLCASOPENMOLCASOPENM
               OPENMOLCASOPENMOLCA        version: v23.10 ?
                   OPENMOLCASO
                       OPE                tag:

 OpenMolcas is free software; you can redistribute it and/or modify it
 under the terms of the GNU Lesser General Public License version 2.1.
 OpenMolcas is distributed in the hope that it will be useful, but it
 is provided "as is" and without any express or implied warranties.
 For more details see the full text of the license in the file
 LICENSE or in <http://www.gnu.org/licenses/>.

                 Copyright (C) The OpenMolcas Authors
           For the author list and the recommended citation,
                   consult the file CONTRIBUTORS.md

           *************************************************
           * pymolcas version py2.25                       *
           *   build 2b27fa14244bdc32cb1957e6230cd793      *
           *   (after the EMIL interpreter by V. Veryazov) *
           *************************************************

configuration info
------------------
Host name: cpn-h22-29.core.ccr.buffalo.edu (Linux)
C Compiler ID: Intel
C flags: -O2 -xCore-AVX512 -ftz -fp-speculation=safe -fp-model source -std=gnu99 -gcc-sys -qopenmp
Fortran Compiler ID: Intel
Fortran flags: -O2 -xCore-AVX512 -ftz -fp-speculation=safe -fp-model source  -fpp -i8 -heap-arrays -qopenmp
Definitions: _MOLCAS_;_I8_;_LINUX_;_MOLCAS_MPP_;_SCALAPACK_;_GA_
Parallel: ON (GA=ON)


   -----------------------------------------------------------------------------------------------------------------------------------------------------
  |
  |           Project: tbhp_sa4_casscf_sp
  |    Submitted from: /projects/academic/cyberwksp21/Students/hclifford/openmolcas/active_space
  |      Scratch area: /projects/academic/cyberwksp21/Students/hclifford/openmolcas/active_space/molcas_scratch_25170164/tbhp_sa4_casscf_sp
  |   Save outputs to: /projects/academic/cyberwksp21/Students/hclifford/openmolcas/active_space
  |            Molcas: /cvmfs/soft.ccr.buffalo.edu/versions/2023.01/easybuild/software/avx512/MPI/intel/2022.0.1/impi/2021.5.0/openmolcas/23.10
  |
  | Scratch area is empty
  |
  |    MOLCAS_DRIVER = /cvmfs/soft.ccr.buffalo.edu/versions/2023.01/easybuild/software/avx512/MPI/intel/2022.0.1/impi/2021.5.0/openmolcas/23.10/pymolcas
  |    MOLCAS_MOLDEN = ON
  |    MOLCAS_NPROCS = 1
  |     MOLCAS_PRINT = NORMAL
  |    MOLCAS_SOURCE = /cvmfs/soft.ccr.buffalo.edu/versions/2023.01/easybuild/software/avx512/MPI/intel/2022.0.1/impi/2021.5.0/openmolcas/23.10
  | MOLCAS_STRUCTURE = 0
  |
   -----------------------------------------------------------------------------------------------------------------------------------------------------

++ ---------   Input file   ---------

&GATEWAY
  Title = TBHP SA4-CASSCF(6e,4o) single point for active-space inspection
  Coord = tbhp_unopt.xyz
  Basis = cc-pVDZ
  Group = NoSymm

&SEWARD

&SCF
  Charge = 0
  Spin = 1

&RASSCF
  Title = TBHP SA4-CASSCF(6e,4o) single point
  Spin = 1
  Nactel = 6 0 0
  Inactive = 22
  Ras2 = 4
  CiRoot = 4 4 1
  LumOrb
  LevShift = 0.5

-- ----------------------------------

--- Start Module: gateway at Mon Jul  6 14:25:07 2026 ---
 
()()()()()()()()()()()()()()()()()()()()()()()()()()()()()()()()()()()()()()()()()()()()()()()()()()

                                              &GATEWAY

                       only a single process is used, running in SERIAL mode
                        available to each process: 12 GB of memory, 1 thread
                                            pid: 1269047
()()()()()()()()()()()()()()()()()()()()()()()()()()()()()()()()()()()()()()()()()()()()()()()()()()
 
 
 Title:
                TBHP SA4-CASSCF(6e,4o) single point for active-space inspection         
 
 
++    Symmetry information:
      ---------------------
 
                    Character Table for C1 
 
                             E  
                    a        1  x, y, xy, Rz, z, xz, Ry, yz, Rx, I
--
 
 
++    Basis set information:
      ----------------------
 
 
      Basis set label: C.CC-PVDZ.........
 
      Electronic valence basis set:
      ------------------
      Associated Effective Charge   6.000000 au
      Associated Actual Charge      6.000000 au
      Nuclear Model: Point charge
 
      Shell  nPrim  nBasis  Cartesian Spherical Contaminant
         s       9       3        X                  
         p       4       2        X                  
         d       1       1                 X         
 
 
      Basis set label: H.CC-PVDZ.........
 
      Electronic valence basis set:
      ------------------
      Associated Effective Charge   1.000000 au
      Associated Actual Charge      1.000000 au
      Nuclear Model: Point charge
 
      Shell  nPrim  nBasis  Cartesian Spherical Contaminant
         s       4       2        X                  
         p       1       1        X                  
 
 
      Basis set label: O.CC-PVDZ.........
 
      Electronic valence basis set:
      ------------------
      Associated Effective Charge   8.000000 au
      Associated Actual Charge      8.000000 au
      Nuclear Model: Point charge
 
      Shell  nPrim  nBasis  Cartesian Spherical Contaminant
         s       9       3        X                  
         p       4       2        X                  
         d       1       1                 X         
 
 
      Basis set label: H.CC-PVDZ.........
 
      Electronic valence basis set:
      ------------------
      Associated Effective Charge   1.000000 au
      Associated Actual Charge      1.000000 au
      Nuclear Model: Point charge
 
      Shell  nPrim  nBasis  Cartesian Spherical Contaminant
         s       4       2        X                  
         p       1       1        X                  
 
 
      Basis set label: C.CC-PVDZ.........
 
      Electronic valence basis set:
      ------------------
      Associated Effective Charge   6.000000 au
      Associated Actual Charge      6.000000 au
      Nuclear Model: Point charge
 
      Shell  nPrim  nBasis  Cartesian Spherical Contaminant
         s       9       3        X                  
         p       4       2        X                  
         d       1       1                 X         
 
 
      Basis set label: H.CC-PVDZ.........
 
      Electronic valence basis set:
      ------------------
      Associated Effective Charge   1.000000 au
      Associated Actual Charge      1.000000 au
      Nuclear Model: Point charge
 
      Shell  nPrim  nBasis  Cartesian Spherical Contaminant
         s       4       2        X                  
         p       1       1        X                  
 
 
      Basis set label: C.CC-PVDZ.........
 
      Electronic valence basis set:
      ------------------
      Associated Effective Charge   6.000000 au
      Associated Actual Charge      6.000000 au
      Nuclear Model: Point charge
 
      Shell  nPrim  nBasis  Cartesian Spherical Contaminant
         s       9       3        X                  
         p       4       2        X                  
         d       1       1                 X         
 
 
      Basis set label: H.CC-PVDZ.........
 
      Electronic valence basis set:
      ------------------
      Associated Effective Charge   1.000000 au
      Associated Actual Charge      1.000000 au
      Nuclear Model: Point charge
 
      Shell  nPrim  nBasis  Cartesian Spherical Contaminant
         s       4       2        X                  
         p       1       1        X                  
--
 
 
++    Molecular structure info:
      -------------------------
 
                    ************************************************ 
                    **** Cartesian Coordinates / Bohr, Angstrom **** 
                    ************************************************ 
 
     Center  Label                x              y              z                     x              y              z
        1      C1              -0.054292       0.076364      -0.844897             -0.028730       0.040410      -0.447100
        2      C2               0.844169       2.811257      -0.841268              0.446715       1.487653      -0.445180
        3      H3               0.075997       3.827323       0.771352              0.040216       2.025332       0.408182
        4      H4               2.900095       2.889387      -0.765150              1.534664       1.528998      -0.404900
        5      O5               0.950421      -1.262159       1.313913              0.502941      -0.667906       0.695293
        6      O6              -0.041215      -0.121084       3.611728             -0.021810      -0.064075       1.911244
        7      H7               1.491170       0.600468       4.286205              0.789093       0.317754       2.268162
        8      C8               1.100166      -1.395277      -3.033029              0.582183      -0.738349      -1.605010
        9      H9               0.524253      -3.367585      -2.955947              0.277423      -1.782049      -1.564220
       10      H10              3.153900      -1.304085      -2.967626              1.668972      -0.690092      -1.570400
       11      H11              0.463280      -0.593079      -4.817063              0.245157      -0.313844      -2.549080
       12      C12             -2.926279      -0.101218      -0.866213             -1.548520      -0.053562      -0.458380
       13      H13             -3.515609      -2.071856      -0.853816             -1.860380      -1.096379      -0.451820
       14      H14             -3.681168       0.802089      -2.555155             -1.947990       0.424447      -1.352130
       15      H15             -3.718698       0.830499       0.783686             -1.967850       0.439481       0.414709
       16      H16              0.222791       3.766406      -2.555136              0.117896       1.993096      -1.352120
 
                    ************************************************* 
                    **** InterNuclear Distances / Bohr, Angstrom **** 
                    ************************************************* 
 
     Atom centers         Bohr        Angstrom
    7 H7        6 O6      1.823118        0.964753
   15 H15      12 C12     2.053823        1.086836
    3 H3        2 C2      2.054999        1.087459
    9 H9        8 C8      2.056116        1.088050
   10 H10       8 C8      2.056797        1.088410
   13 H13      12 C12     2.056910        1.088470
   11 H11       8 C8      2.057164        1.088604
   16 H16       2 C2      2.058097        1.089098
   14 H14      12 C12     2.058725        1.089430
    4 H4        2 C2      2.058817        1.089479
    5 O5        1 C1      2.731584        1.445492
    6 O6        5 O5      2.750517        1.455511
   12 C12       1 C1      2.877551        1.522734
    8 C8        1 C1      2.878615        1.523298
    2 C2        1 C1      2.878695        1.523340
   16 H16       3 H3      3.330283        1.762310
   16 H16       4 H4      3.337839        1.766308
   15 H15      13 H13     3.338611        1.766717
   15 H15      14 H14     3.339174        1.767015
   11 H11       9 H9      3.341459        1.768224
   11 H11      10 H10   
   10 H10       9 H9      3.342635        1.768846
   14 H14      13 H13     3.343878        1.769504
    4 H4        3 H3      3.349043        1.772237
    7 H7        5 O5      3.549128        1.878118
   11 H11       1 C1      4.061298        2.149146
   13 H13       1 C1      4.073775        2.155749
   14 H14       1 C1      4.075032        2.156414
   16 H16       1 C1      4.076531        2.157207
    4 H4        1 C1      4.080179        2.159138
   15 H15       1 C1      4.080303        2.159203
    9 H9        1 C1      4.080690        2.159408
    3 H3        1 C1      4.086432        2.162447
   10 H10       1 C1      4.087067        2.162783
    8 C8        5 O5      4.351558        2.302745
    6 O6        1 C1      4.461015        2.360668
   12 C12       5 O5      4.596687        2.432462
    5 O5        2 C2      4.609644        2.439318
   13 H13       9 H9      4.734803        2.505550
   15 H15       6 O6      4.735737        2.506044
   10 H10       4 H4      4.743472        2.510137
    8 C8        2 C2      4.750187        2.513691
   12 C12       8 C8      4.752046        2.514675
   12 C12       2 C2      4.764389        2.521206
    9 H9        5 O5      4.779764        2.529342
   10 H10       5 O5      4.815460        2.548232
   15 H15       3 H3      4.835371        2.558768
    6 O6        3 H3      4.865325        2.574619
   16 H16      14 H14     4.901843        2.593944
   16 H16      11 H11     4.917241        2.602092
   14 H14      11 H11     4.923328        2.605313
    7 H7        3 H3      4.976896        2.633660
   13 H13       5 O5      5.029918        2.661718
    5 O5        4 H4      5.035779        2.664820
   15 H15       5 O5      5.144028        2.722102
   13 H13       8 C8      5.148991        2.724729
    8 C8        4 H4      5.171206        2.736484
   10 H10       2 C2      5.176127        2.739088
   12 C12       9 H9      5.190599        2.746747
    5 O5        3 H3      5.192477        2.747741
   12 C12       3 H3      5.208523        2.756231
   12 C12      11 H11     5.228791        2.766957
   15 H15       2 C2      5.232937        2.769151
   14 H14       2 C2      5.239545        2.772648
   11 H11       2 C2      5.248002        2.777123
   16 H16       8 C8      5.257484        2.782141
   16 H16      12 C12     5.265702        2.786489
   14 H14       8 C8      5.283743        2.796036
   12 C12       6 O6      5.326907        2.818878
    7 H7        1 C1      5.384361        2.849281
    6 O6        2 C2      5.404785        2.860089
    7 H7        2 C2      5.621137        2.974577
--
 
 
            Nuclear Potential Energy            270.89056503 au
 
--- Stop Module: gateway at Mon Jul  6 14:25:08 2026 /rc=_RC_ALL_IS_WELL_ ---
*** files: xmldump
    saved to directory /projects/academic/cyberwksp21/Students/hclifford/openmolcas/active_space
--- Module gateway spent 1 second ---

--- Start Module: seward at Mon Jul  6 14:25:09 2026 ---
 
()()()()()()()()()()()()()()()()()()()()()()()()()()()()()()()()()()()()()()()()()()()()()()()()()()

                                              &SEWARD

                       only a single process is used, running in SERIAL mode
                        available to each process: 12 GB of memory, 1 thread
                                            pid: 1269051
()()()()()()()()()()()()()()()()()()()()()()()()()()()()()()()()()()()()()()()()()()()()()()()()()()
 
               SEWARD will generate:
                  Multipole Moment integrals up to order  2
                  Kinetic Energy integrals
                  Nuclear Attraction integrals (point charge)
                  One-Electron Hamiltonian integrals
                  Velocity integrals
                  Orbital angular momentum around ( 0.0001 -0.0001  0.0005 )
                  Velocity quadrupole around ( 0.0001 -0.0001  0.0005 )
                  Two-Electron Repulsion integrals
 
 Title:
                TBHP SA4-CASSCF(6e,4o) single point for active-space inspection         
 
 
                   Integrals are discarded if absolute value <: 0.10E-13
                   Integral cutoff threshold is set to       <: 0.10E-15
 
            Nuclear Potential Energy            270.89056503 au
 
 
      Basis set specifications :
      Symmetry species         a  
      Basis functions          134
 
 
      Input file to MOLDEN was generated!
 
--- Stop Module: seward at Mon Jul  6 14:25:34 2026 /rc=_RC_ALL_IS_WELL_ ---
*** files: tbhp_sa4_casscf_sp.GssOrb tbhp_sa4_casscf_sp.guessorb.h5 tbhp_sa4_casscf_sp.guessorb.molden xmldump
    saved to directory /projects/academic/cyberwksp21/Students/hclifford/openmolcas/active_space
--- Module seward spent 25 seconds ---

*** symbolic link created: INPORB -> tbhp_sa4_casscf_sp.GssOrb
--- Start Module: scf at Mon Jul  6 14:25:34 2026 ---
 
()()()()()()()()()()()()()()()()()()()()()()()()()()()()()()()()()()()()()()()()()()()()()()()()()()

                                                &SCF

                       only a single process is used, running in SERIAL mode
                        available to each process: 12 GB of memory, 1 thread
                                            pid: 1269057
()()()()()()()()()()()()()()()()()()()()()()()()()()()()()()()()()()()()()()()()()()()()()()()()()()
 
++    Input section:
      --------------
 
      Header of the integral files:
      
       Integrals generated by Gateway/Seward, Mon Jul  6 14:25:09 2026
 
 
      Cartesian coordinates in Angstrom:
      -----------------------------------------------------
      No.  Label        X            Y            Z        
      -----------------------------------------------------
       1   C1        -0.02873000   0.04041000  -0.44710000
       2   C2         0.44671500   1.48765300  -0.44518000
       3   H3         0.04021600   2.02533200   0.40818200
       4   H4         1.53466400   1.52899800  -0.40490000
       5   O5         0.50294100  -0.66790600   0.69529300
       6   O6        -0.02181000  -0.06407500   1.91124400
       7   H7         0.78909300   0.31775400   2.26816200
       8   C8         0.58218300  -0.73834900  -1.60501000
       9   H9         0.27742300  -1.78204900  -1.56422000
      10   H10        1.66897200  -0.69009200  -1.57040000
      11   H11        0.24515700  -0.31384400  -2.54908000
      12   C12       -1.54852000  -0.05356200  -0.45838000
      13   H13       -1.86038000  -1.09637900  -0.45182000
      14   H14       -1.94799000   0.42444700  -1.35213000
      15   H15       -1.96785000   0.43948100   0.41470900
      16   H16        0.11789600   1.99309600  -1.35212000
      -----------------------------------------------------
      Nuclear repulsion energy =  270.89056503
--
 
++    Orbital specifications:
      -----------------------
 
      Symmetry species               1
                                     a
      Frozen orbitals                0
      Occupied orbitals             25
      Secondary orbitals           109
      Deleted orbitals               0
      Total number of orbitals     134
      Number of basis functions    134
--
 
      Molecular charge                           0.000
 
++    Optimization specifications:
      ----------------------------
 
      SCF Algorithm: Conventional
      Minimized density differences are used
      Number of density matrices in core                5
      Maximum number of NDDO SCF iterations           400
      Maximum number of HF SCF iterations             400
      Threshold for SCF energy change            0.10E-08
      Threshold for density matrix               0.10E-03
      Threshold for Fock matrix                  0.15E-03
      Threshold for linear dependence            0.10E-08
      Threshold at which DIIS is turned on       0.15E+00
      Maximum depth in the DIIS procedure               5
      Maximum depth in the BFGS Hessian update         30
      Threshold at which QNR/C2DIIS is turned on 0.75E-01
      Threshold for Norm(delta) (QNR/C2DIIS)     0.10E-02
      All orbitals punched on: SCFORB
--
 
      Input vectors read from INPORB
      Orbital file label: *Guess orbitals
 
 
++ Convergence information
                                   SCF        iterations: Energy and convergence statistics
 
Iter     Tot. SCF        One-elec.       Two-elec.     Energy      Max Dij or  Max Fij      DNorm      TNorm      AccCon     Time
         Energy          Energy          Energy        Change      Delta Norm                                                in Sec.
   1  -306.341023119  -950.064627287   372.833039140   0.00E+00    0.18E+00*   0.11E+00*    0.10E+02   0.21E+03   None         1.
   2  -306.864491504  -958.256067824   380.501011293  -0.52E+00*   0.76E-01*   0.44E-01*    0.42E+01   0.21E+03   EDIIS        1.
   3  -306.917969044  -955.008288547   377.199754475  -0.53E-01*   0.18E-01*   0.15E-01*    0.15E+01   0.21E+03   c2DIIS       1.
   4  -306.936774668  -956.126938338   378.299598643  -0.19E-01*   0.14E-01*   0.35E-02*    0.20E+00   0.21E+03   QNRc2DIIS    1.
   5  -306.937253200  -956.104332798   378.276514571  -0.48E-03*   0.70E-02*   0.16E-02*    0.63E-01   0.21E+03   QNRc2DIIS    1.
   6  -306.937353473  -956.117094764   378.289176263  -0.10E-03*   0.12E-02*   0.24E-03*    0.20E-01   0.21E+03   QNRc2DIIS    1.
   7  -306.937356904  -956.116590646   378.288668714  -0.34E-05*   0.89E-03    0.14E-03     0.58E-02   0.21E+03   QNRc2DIIS    1.
   8  -306.937358013  -956.114627560   378.286704519  -0.11E-05*   0.17E-03    0.33E-04     0.34E-02   0.21E+03   QNRc2DIIS    1.
   9  -306.937358089  -956.116090623   378.288167506  -0.76E-07*   0.10E-03    0.15E-04     0.93E-03   0.21E+03   QNRc2DIIS    1.
  10  -306.937358104  -956.115933174   378.288010042  -0.15E-07*   0.38E-04    0.55E-05     0.32E-03   0.21E+03   QNRc2DIIS    1.
  11  -306.937358106  -956.115945309   378.288022175  -0.20E-08*   0.19E-04    0.20E-05     0.15E-03   0.21E+03   QNRc2DIIS    1.
  12  -306.937358107  -956.115896817   378.287973683  -0.41E-09    0.43E-05    0.58E-06     0.58E-04   0.21E+03   QNRc2DIIS    1.
 
       Convergence after  12 Macro Iterations
--
 
 *****************************************************************************************************************************
 *                                                                                                                           *
 *                                             SCF/KS-DFT Program, Final results                                             *
 *                                                                                                                           *
 *                                                                                                                           *
 *                                                                                                                           *
 *                                                       Final Results                                                       *
 *                                                                                                                           *
 *****************************************************************************************************************************
 
::    Total SCF energy                               -306.9373581067
      One-electron energy                            -956.1158968174
      Two-electron energy                             378.2879736832
      Nuclear repulsion energy                        270.8905650274
      Kinetic energy (interpolated)                   306.6957701300
      Virial theorem                                    1.0007877121
      Total spin, S(S+1)                                0.0000000000
      Total spin, S                                     0.0000000000
      Max non-diagonal density matrix element           0.0000025455
      Max non-diagonal Fock matrix element              0.0000002922
 
 
      All orbitals with orbital energies smaller than  E(LUMO)+0.5 are printed
 
++    Molecular orbitals:
      -------------------
 
      Title: SCF orbitals

      Molecular orbitals for symmetry species 1: a  
 
          Orbital            1         2         3         4         5         6         7         8         9        10    
          Energy          -20.6137  -20.6109  -11.2894  -11.2227  -11.2226  -11.2155   -1.4615   -1.2271   -1.0576   -0.9453
          Occ. No.          2.0000    2.0000    2.0000    2.0000    2.0000    2.0000    2.0000    2.0000    2.0000    2.0000
 
        1 C1     1s        -0.0002    0.0002    1.0021   -0.0043    0.0049    0.0042   -0.0032    0.0108   -0.0170   -0.0004
        2 C1     2s        -0.0007    0.0007    0.0105    0.0005   -0.0004   -0.0004    0.1711   -0.3378    0.3994    0.0028
        3 C1     *s         0.0012   -0.0042   -0.0172    0.0002   -0.0006   -0.0006   -0.0965    0.0871    0.0112    0.0062
        4 C1     2px        0.0001   -0.0002    0.0004    0.0001   -0.0001    0.0003    0.0275   -0.0473   -0.0533   -0.0513
        5 C1     *px       -0.0005   -0.0010    0.0003    0.0003   -0.0006    0.0007   -0.0195    0.0144    0.0010    0.0040
        6 C1     2py       -0.0001    0.0002   -0.0004   -0.0002   -0.0003    0.0000   -0.0364    0.0620    0.0790   -0.2241
        7 C1     *py        0.0004    0.0013   -0.0004   -0.0005   -0.0006    0.0004    0.0136   -0.0272   -0.0018    0.0123
        8 C1     2pz       -0.0002   -0.0004    0.0009   -0.0002    0.0000   -0.0000    0.0730   -0.0711   -0.1261   -0.1069
        9 C1     *pz        0.0018   -0.0015   -0.0004   -0.0004   -0.0004   -0.0004   -0.0518    0.0306    0.0258    0.0050
       10 C1     *d2-      -0.0001   -0.0000   -0.0000    0.0001    0.0001    0.0000   -0.0041    0.0072    0.0063   -0.0140
       11 C1     *d1-      -0.0001    0.0000    0.0000   -0.0001    0.0000    0.0000   -0.0088    0.0119    0.0140    0.0094
       12 C1     *d0        0.0000   -0.0002    0.0000   -0.0000   -0.0001   -0.0001    0.0063   -0.0060   -0.0117    0.0105
       13 C1     *d1+       0.0001   -0.0000   -0.0000    0.0001   -0.0001    0.0000    0.0062   -0.0091   -0.0105   -0.0089
       14 C1     *d2+      -0.0000    0.0000   -0.0000    0.0000   -0.0001    0.0001   -0.0010    0.0022    0.0014    0.0147
       15 C2     1s        -0.0000    0.0001    0.0045   -0.0659   -0.9998   -0.0011   -0.0011    0.0019   -0.0119    0.0184
       16 C2     2s        -0.0001    0.0003   -0.0004   -0.0014   -0.0105    0.0007    0.0330   -0.1048    0.3673   -0.5823
       17 C2     *s        -0.0004   -0.0001    0.0040    0.0023    0.0124   -0.0015   -0.0041    0.0462   -0.1468    0.1786
       18 C2     2px        0.0000   -0.0000   -0.0001   -0.0001   -0.0000   -0.0002   -0.0041    0.0097   -0.0331    0.0028
       19 C2     *px        0.0002    0.0001   -0.0004    0.0002   -0.0003    0.0009    0.0004   -0.0028    0.0200   -0.0051
       20 C2     2py        0.0001   -0.0002   -0.0003    0.0001   -0.0003   -0.0000   -0.0204    0.0471   -0.0692   -0.0053
       21 C2     *py       -0.0000    0.0000   -0.0014   -0.0007   -0.0008    0.0003    0.0008   -0.0248    0.0349   -0.0128
       22 C2     2pz       -0.0000    0.0000   -0.0000    0.0001    0.0001   -0.0000    0.0062   -0.0034   -0.0152   -0.0161
       23 C2     *pz       -0.0001    0.0003    0.0003   -0.0006   -0.0002    0.0001    0.0033    0.0023    0.0053    0.0102
       24 C2     *d2-      -0.0000   -0.0000   -0.0000   -0.0000    0.0001   -0.0001    0.0013   -0.0025    0.0056   -0.0016
       25 C2     *d1-       0.0001   -0.0000   -0.0000    0.0001   -0.0000    0.0000   -0.0020    0.0004    0.0026    0.0006
       26 C2     *d0       -0.0000   -0.0000    0.0001    0.0000   -0.0001    0.0001   -0.0020    0.0041   -0.0043    0.0009
       27 C2     *d1+      -0.0000   -0.0001    0.0000   -0.0001   -0.0000   -0.0000   -0.0014    0.0012    0.0009    0.0005
       28 C2     *d2+      -0.0000   -0.0001    0.0001   -0.0001   -0.0002   -0.0001   -0.0032    0.0054   -0.0059    0.0008
       29 H3     1s        -0.0002   -0.0001   -0.0003   -0.0000   -0.0001    0.0002    0.0085   -0.0239    0.1244   -0.2564
       30 H3     *s         0.0002    0.0001    0.0000    0.0003   -0.0010    0.0001   -0.0014    0.0180   -0.0508    0.1110
       31 H3     *px        0.0000   -0.0000   -0.0001   -0.0000    0.0002   -0.0001    0.0006   -0.0009    0.0034   -0.0084
       32 H3     *py        0.0000   -0.0001   -0.0001   -0.0000   -0.0002   -0.0000   -0.0017    0.0011   -0.0064    0.0089
       33 H3     *pz        0.0000    0.0000   -0.0000   -0.0000   -0.0004   -0.0000   -0.0002    0.0017   -0.0087    0.0160
       34 H4     1s         0.0000    0.0001   -0.0004   -0.0002   -0.0001    0.0000    0.0078   -0.0304    0.1217   -0.2440
       35 H4     *s        -0.0002   -0.0000    0.0002   -0.0002   -0.0011   -0.0004   -0.0024    0.0134   -0.0569    0.1035
       36 H4     *px        0.0000   -0.0000   -0.0000   -0.0000   -0.0005   -0.0000   -0.0012    0.0029   -0.0110    0.0197
       37 H4     *py        0.0000   -0.0001   -0.0001    0.0000    0.0001    0.0000   -0.0006    0.0010   -0.0013    0.0004
       38 H4     *pz       -0.0000    0.0000   -0.0000    0.0001   -0.0000   -0.0000    0.0004   -0.0007   -0.0010    0.0001
       39 O5     1s         0.0525   -0.9995   -0.0000   -0.0000    0.0000    0.0000   -0.0106    0.0027    0.0019    0.0008
       40 O5     2s         0.0003   -0.0035    0.0003   -0.0001    0.0002    0.0002    0.6059   -0.5205   -0.3744   -0.0218
       41 O5     *s        -0.0001    0.0065    0.0008    0.0001   -0.0000   -0.0001   -0.0012   -0.0027   -0.0342   -0.0088
       42 O5     2px       -0.0002    0.0013   -0.0002   -0.0000   -0.0000   -0.0001   -0.0572    0.0175   -0.0254   -0.0210
       43 O5     *px        0.0001   -0.0019    0.0002    0.0002    0.0000    0.0001    0.0041    0.0013    0.0039    0.0065
       44 O5     2py        0.0002   -0.0018    0.0002    0.0000    0.0001    0.0000    0.0810   -0.0173    0.0398   -0.0535
       45 O5     *py       -0.0001    0.0026   -0.0003   -0.0002   -0.0001   -0.0001    0.0011   -0.0012   -0.0087    0.0095
       46 O5     2pz        0.0002   -0.0002   -0.0002    0.0001   -0.0000   -0.0000    0.0460    0.1741   -0.0383   -0.0191
       47 O5     *pz        0.0010   -0.0002   -0.0002   -0.0007    0.0001   -0.0000   -0.0106   -0.0306    0.0061    0.0018
       48 O5     *d2-       0.0000   -0.0002    0.0001    0.0000   -0.0000   -0.0000   -0.0069    0.0015   -0.0012    0.0008
       49 O5     *d1-       0.0001    0.0001    0.0001    0.0000    0.0000    0.0000    0.0060    0.0115   -0.0029    0.0005
       50 O5     *d0        0.0000    0.0003   -0.0002    0.0001    0.0000    0.0000    0.0092    0.0002   -0.0002    0.0021
       51 O5     *d1+      -0.0000   -0.0001   -0.0001   -0.0000   -0.0000   -0.0000   -0.0038   -0.0078    0.0024    0.0012
       52 O5     *d2+      -0.0000   -0.0001    0.0000    0.0000    0.0000   -0.0000   -0.0022   -0.0001   -0.0008    0.0024
       53 O6     1s         0.9992    0.0526   -0.0002   -0.0001    0.0000   -0.0000   -0.0059   -0.0033    0.0007   -0.0006
       54 O6     2s         0.0025    0.0002   -0.0006   -0.0002    0.0002    0.0000    0.6048    0.6280    0.1855    0.0434
       55 O6     *s        -0.0031   -0.0011    0.0012    0.0007   -0.0002    0.0002   -0.0655   -0.0227   -0.0041    0.0090
       56 O6     2px        0.0023    0.0000    0.0000    0.0000    0.0000   -0.0000    0.0845    0.0660   -0.0030   -0.0026
       57 O6     *px       -0.0020   -0.0003    0.0000    0.0002   -0.0002    0.0002   -0.0323   -0.0338   -0.0088   -0.0030
       58 O6     2py        0.0002    0.0001   -0.0000    0.0000    0.0000   -0.0000   -0.0192    0.0562    0.0697   -0.0058
       59 O6     *py        0.0001    0.0002    0.0001   -0.0001   -0.0001    0.0001    0.0004   -0.0179   -0.0138   -0.0005
       60 O6     2pz       -0.0008    0.0003    0.0001   -0.0000   -0.0001   -0.0001   -0.0796    0.0885    0.0811    0.0344
       61 O6     *pz        0.0016    0.0006   -0.0007   -0.0002    0.0001    0.0002    0.0104   -0.0307   -0.0126   -0.0084
       62 O6     *d2-       0.0001   -0.0000    0.0000   -0.0000   -0.0000    0.0000   -0.0020    0.0033    0.0035    0.0003
       63 O6     *d1-      -0.0002   -0.0001   -0.0000    0.0000    0.0000    0.0000    0.0074   -0.0002   -0.0037    0.0001
       64 O6     *d0       -0.0002   -0.0001    0.0001    0.0000    0.0000   -0.0000    0.0067   -0.0033   -0.0036   -0.0009
       65 O6     *d1+       0.0003    0.0000    0.0000   -0.0000   -0.0000    0.0000   -0.0068    0.0040    0.0055    0.0018
       66 O6     *d2+       0.0000   -0.0000    0.0000    0.0000   -0.0000    0.0000    0.0022    0.0026    0.0006   -0.0000
       67 H7     1s         0.0002    0.0001   -0.0002   -0.0001    0.0003   -0.0003    0.1896    0.2785    0.1109    0.0239
       68 H7     *s         0.0003   -0.0002    0.0002    0.0001   -0.0002    0.0001   -0.0972   -0.1339   -0.0507   -0.0095
       69 H7     *px        0.0006    0.0001    0.0000    0.0000   -0.0000    0.0001   -0.0204   -0.0277   -0.0106   -0.0022
       70 H7     *py        0.0002    0.0000   -0.0000    0.0000   -0.0000    0.0000   -0.0102   -0.0122   -0.0031   -0.0016
       71 H7     *pz        0.0001    0.0001    0.0001    0.0000   -0.0000    0.0000   -0.0095   -0.0101   -0.0033    0.0002
       72 C8     1s        -0.0001   -0.0001    0.0046    0.9998   -0.0655   -0.0010   -0.0012    0.0038   -0.0111   -0.0139
       73 C8     2s        -0.0004   -0.0002   -0.0000    0.0107   -0.0000    0.0007    0.0310   -0.1330    0.3287    0.4522
       74 C8     *s         0.0016    0.0012    0.0026   -0.0127   -0.0005   -0.0013   -0.0140    0.0539   -0.1151   -0.1424
       75 C8     2px       -0.0000   -0.0001   -0.0001    0.0000    0.0000   -0.0002   -0.0053    0.0173   -0.0388   -0.0206
       76 C8     *px       -0.0002    0.0001   -0.0003    0.0005   -0.0001    0.0008    0.0064   -0.0049    0.0159    0.0135
       77 C8     2py        0.0000    0.0001    0.0002    0.0000    0.0001    0.0000    0.0069   -0.0218    0.0513   -0.0226
       78 C8     *py        0.0004   -0.0001    0.0005   -0.0007   -0.0008   -0.0001   -0.0067    0.0067   -0.0216    0.0053
       79 C8     2pz        0.0000    0.0001    0.0002   -0.0002    0.0000    0.0000    0.0181   -0.0509    0.0407    0.0024
       80 C8     *pz        0.0005    0.0008    0.0008   -0.0007   -0.0001   -0.0002    0.0031    0.0199   -0.0218   -0.0151
       81 C8     *d2-      -0.0000    0.0000    0.0000    0.0001   -0.0000    0.0000    0.0001    0.0019   -0.0045   -0.0006
       82 C8     *d1-       0.0000    0.0001   -0.0001   -0.0002   -0.0000   -0.0000    0.0029   -0.0061    0.0063   -0.0007
       83 C8     *d0        0.0000    0.0000   -0.0001   -0.0001    0.0001    0.0001    0.0022   -0.0027    0.0016    0.0009
       84 C8     *d1+      -0.0000   -0.0001    0.0001    0.0001    0.0000    0.0000   -0.0021    0.0048   -0.0048   -0.0023
       85 C8     *d2+      -0.0000    0.0000    0.0000    0.0000    0.0001   -0.0001   -0.0001    0.0003   -0.0012    0.0013
       86 H9     1s        -0.0001   -0.0002   -0.0003    0.0002    0.0000    0.0002    0.0055   -0.0385    0.1064    0.2096
       87 H9     *s         0.0001    0.0001    0.0001    0.0010   -0.0005    0.0001   -0.0023    0.0165   -0.0490   -0.0932
       88 H9     *px        0.0000   -0.0000   -0.0000   -0.0002    0.0000   -0.0001    0.0001   -0.0011    0.0018    0.0049
       89 H9     *py       -0.0000    0.0000    0.0000   -0.0004    0.0001    0.0000    0.0010   -0.0036    0.0096    0.0149
       90 H9     *pz       -0.0000    0.0000    0.0001    0.0001   -0.0000    0.0000    0.0001   -0.0012    0.0000   -0.0019
       91 H10    1s        -0.0001   -0.0002   -0.0003    0.0002    0.0002    0.0000    0.0059   -0.0378    0.1079    0.1750
       92 H10    *s         0.0001    0.0001    0.0001    0.0010    0.0000   -0.0004   -0.0034    0.0159   -0.0491   -0.0737
       93 H10    *px        0.0000   -0.0000   -0.0000    0.0004   -0.0000   -0.0000   -0.0010    0.0036   -0.0098   -0.0150
       94 H10    *py       -0.0000    0.0000    0.0000    0.0001    0.0001   -0.0000    0.0002    0.0003    0.0006   -0.0009
       95 H10    *pz       -0.0000    0.0000    0.0001    0.0001    0.0000   -0.0000    0.0002   -0.0011    0.0001    0.0002
       96 H11    1s        -0.0001    0.0001   -0.0001    0.0002    0.0002    0.0002    0.0076   -0.0316    0.1263    0.1872
       97 H11    *s         0.0001    0.0001    0.0001    0.0011    0.0000    0.0000    0.0008    0.0171   -0.0603   -0.0816
       98 H11    *px       -0.0000    0.0000   -0.0000   -0.0002    0.0000   -0.0001    0.0004   -0.0011    0.0033    0.0041
       99 H11    *py        0.0000   -0.0001    0.0000    0.0003    0.0001   -0.0000   -0.0005    0.0013   -0.0040   -0.0063
      100 H11    *pz        0.0000   -0.0000    0.0001   -0.0004    0.0000   -0.0000    0.0006   -0.0033    0.0090    0.0133
      101 C12    1s         0.0000    0.0001    0.0040   -0.0013    0.0016   -1.0019    0.0001    0.0029   -0.0108   -0.0053
      102 C12    2s         0.0001    0.0003   -0.0004   -0.0007    0.0007   -0.0106    0.0363   -0.1008    0.3443    0.1627
      103 C12    *s        -0.0008   -0.0001    0.0040    0.0014   -0.0016    0.0125   -0.0161    0.0379   -0.1404   -0.0505
      104 C12    2px       -0.0001    0.0002    0.0004   -0.0001    0.0001    0.0002    0.0208   -0.0475    0.0751    0.0037
      105 C12    *px       -0.0002   -0.0001    0.0015    0.0006   -0.0006    0.0010   -0.0096    0.0170   -0.0407   -0.0061
      106 C12    2py       -0.0000   -0.0000    0.0001    0.0001    0.0001   -0.0001   -0.0012    0.0027    0.0155   -0.0356
      107 C12    *py       -0.0001   -0.0001    0.0000   -0.0004   -0.0007    0.0001    0.0024   -0.0016   -0.0091    0.0175
      108 C12    2pz       -0.0000    0.0000   -0.0000    0.0001   -0.0000    0.0002    0.0070   -0.0032   -0.0146   -0.0177
      109 C12    *pz       -0.0002    0.0002    0.0003   -0.0006    0.0001   -0.0002   -0.0018   -0.0023    0.0021    0.0068
      110 C12    *d2-      -0.0000   -0.0001    0.0000   -0.0001   -0.0001    0.0000   -0.0003    0.0003    0.0020   -0.0030
      111 C12    *d1-       0.0000    0.0001   -0.0000    0.0001   -0.0000    0.0000    0.0005   -0.0015   -0.0003   -0.0002
      112 C12    *d0        0.0000   -0.0000    0.0001    0.0000    0.0001   -0.0001   -0.0017    0.0045   -0.0043   -0.0007
      113 C12    *d1+      -0.0001    0.0000   -0.0000   -0.0001    0.0000   -0.0000    0.0024   -0.0005   -0.0025   -0.0017
      114 C12    *d2+      -0.0000    0.0000   -0.0001    0.0001    0.0000    0.0002    0.0030   -0.0062    0.0077    0.0008
      115 H13    1s         0.0001    0.0001   -0.0004   -0.0002    0.0000   -0.0002    0.0087   -0.0292    0.1119    0.0919
      116 H13    *s        -0.0001   -0.0000    0.0002   -0.0001   -0.0004   -0.0011   -0.0025    0.0137   -0.0518   -0.0419
      117 H13    *px       -0.0000    0.0001    0.0001   -0.0000    0.0000    0.0001    0.0011   -0.0014    0.0040    0.0004
      118 H13    *py        0.0000    0.0000   -0.0000    0.0000    0.0000    0.0005    0.0009   -0.0025    0.0096    0.0062
      119 H13    *pz       -0.0000    0.0000   -0.0000    0.0001   -0.0000    0.0000    0.0008   -0.0003   -0.0006   -0.0007
      120 H14    1s         0.0002    0.0000   -0.0002   -0.0002    0.0002   -0.0001    0.0039   -0.0261    0.1296    0.0666
      121 H14    *s        -0.0000   -0.0001    0.0003   -0.0001    0.0001   -0.0012   -0.0060    0.0109   -0.0610   -0.0295
      122 H14    *px        0.0000   -0.0000    0.0001   -0.0000    0.0000    0.0001    0.0001   -0.0017    0.0040    0.0020
      123 H14    *py       -0.0000   -0.0000    0.0000    0.0000    0.0001   -0.0002    0.0000    0.0013   -0.0046   -0.0033
      124 H14    *pz        0.0000   -0.0000   -0.0000    0.0001   -0.0000    0.0004   -0.0001   -0.0023    0.0091    0.0040
      125 H15    1s        -0.0001   -0.0000   -0.0003   -0.0000    0.0002   -0.0002    0.0113   -0.0212    0.1148    0.0465
      126 H15    *s         0.0001    0.0000    0.0001    0.0004    0.0000   -0.0010   -0.0054    0.0134   -0.0488   -0.0174
      127 H15    *px       -0.0000    0.0001    0.0001   -0.0000    0.0000    0.0001    0.0017   -0.0007    0.0050    0.0031
      128 H15    *py       -0.0000   -0.0000    0.0000    0.0000    0.0001   -0.0002   -0.0010    0.0011   -0.0040   -0.0025
      129 H15    *pz        0.0000    0.0000   -0.0000    0.0000   -0.0000   -0.0004   -0.0001    0.0020   -0.0081   -0.0033
      130 H16    1s         0.0002    0.0001   -0.0002   -0.0002   -0.0002    0.0002    0.0050   -0.0252    0.1395   -0.2395
      131 H16    *s         0.0000   -0.0001    0.0003   -0.0001   -0.0012    0.0001   -0.0025    0.0145   -0.0633    0.1027
      132 H16    *px        0.0000    0.0000   -0.0000   -0.0000    0.0002   -0.0001    0.0001   -0.0005    0.0035   -0.0057
      133 H16    *py       -0.0001    0.0000   -0.0001    0.0000   -0.0001   -0.0000   -0.0001    0.0020   -0.0053    0.0092
      134 H16    *pz        0.0000   -0.0000   -0.0000    0.0001    0.0004    0.0000    0.0001   -0.0020    0.0100   -0.0167
 
          Orbital           11        12        13        14        15        16        17        18        19        20    
          Energy           -0.9423   -0.7630   -0.7025   -0.6547   -0.6400   -0.6098   -0.5754   -0.5471   -0.5442   -0.5306
          Occ. No.          2.0000    2.0000    2.0000    2.0000    2.0000    2.0000    2.0000    2.0000    2.0000    2.0000
 
        1 C1     1s         0.0003    0.0011   -0.0002    0.0014   -0.0018   -0.0013   -0.0025   -0.0000    0.0010    0.0018
        2 C1     2s        -0.0161   -0.5064   -0.0566   -0.1906   -0.0191   -0.0053   -0.0072    0.1267   -0.0508    0.0292
        3 C1     *s         0.0033    0.0931    0.0174   -0.0121    0.0231    0.0084    0.0307    0.0289   -0.0168   -0.0186
        4 C1     2px        0.2378   -0.0516    0.1117    0.1167   -0.0364    0.2999   -0.0244   -0.1277   -0.0504   -0.0115
        5 C1     *px       -0.0107    0.0303   -0.0194   -0.0302    0.0104   -0.0168    0.0112    0.0292   -0.0220   -0.0017
        6 C1     2py       -0.0053    0.0505   -0.0143   -0.1331   -0.3068    0.0327    0.1034    0.1149   -0.0804   -0.0002
        7 C1     *py       -0.0017   -0.0404   -0.0330    0.0369    0.0442    0.0101   -0.0072   -0.0486    0.0092   -0.0159
        8 C1     2pz       -0.0974   -0.0835   -0.0329    0.2994   -0.0823   -0.0994    0.0500   -0.0205    0.0923   -0.0368
        9 C1     *pz        0.0011    0.0082   -0.0004   -0.0176    0.0310    0.0279    0.0231    0.0111   -0.0235   -0.0233
       10 C1     *d2-      -0.0051    0.0058   -0.0054   -0.0067   -0.0031    0.0011   -0.0207    0.0169    0.0010   -0.0032
       11 C1     *d1-       0.0102    0.0095    0.0006   -0.0096   -0.0095   -0.0050   -0.0081    0.0124   -0.0251    0.0025
       12 C1     *d0        0.0106   -0.0067   -0.0055    0.0077   -0.0046   -0.0008   -0.0109   -0.0177    0.0128   -0.0104
       13 C1     *d1+      -0.0065   -0.0087    0.0103    0.0092   -0.0012   -0.0051   -0.0056   -0.0216   -0.0105   -0.0058
       14 C1     *d2+      -0.0197    0.0009    0.0063   -0.0003   -0.0086    0.0047   -0.0058    0.0051    0.0031   -0.0006
       15 C2     1s        -0.0056   -0.0094   -0.0016   -0.0013   -0.0032    0.0019    0.0011    0.0007   -0.0011   -0.0009
       16 C2     2s         0.1648    0.1853   -0.0173    0.0402    0.0880   -0.0146   -0.0067    0.0307   -0.0241   -0.0020
       17 C2     *s        -0.0481   -0.0096    0.0271   -0.0065   -0.0061   -0.0235   -0.0188    0.0128    0.0129    0.0207
       18 C2     2px        0.0373    0.0521    0.0573    0.1239    0.0975    0.2586   -0.3127    0.1085   -0.0518   -0.1103
       19 C2     *px       -0.0166   -0.0228   -0.0226   -0.0230   -0.0187   -0.0567    0.0482   -0.0223    0.0145    0.0106
       20 C2     2py       -0.0084    0.2078   -0.0115    0.1297    0.2362   -0.1930    0.0207   -0.1633    0.1243    0.0239
       21 C2     *py        0.0082   -0.0565   -0.0123   -0.0323   -0.0387    0.0491    0.0073    0.0409   -0.0366   -0.0139
       22 C2     2pz       -0.0166   -0.0328   -0.0011    0.2132   -0.0934   -0.1565   -0.0098    0.1598   -0.3804   -0.3126
       23 C2     *pz        0.0086    0.0106    0.0128   -0.0557    0.0127    0.0192   -0.0164   -0.0359    0.0550    0.0547
       24 C2     *d2-      -0.0024   -0.0066   -0.0013   -0.0073   -0.0088    0.0009   -0.0000    0.0073   -0.0022   -0.0001
       25 C2     *d1-       0.0014   -0.0011    0.0012    0.0014   -0.0010   -0.0015    0.0002    0.0059   -0.0150   -0.0105
       26 C2     *d0       -0.0004    0.0088   -0.0013    0.0013    0.0064   -0.0101    0.0048   -0.0092    0.0075    0.0049
       27 C2     *d1+       0.0007    0.0020    0.0007   -0.0072    0.0024    0.0046   -0.0013   -0.0041    0.0078    0.0083
       28 C2     *d2+      -0.0019    0.0111    0.0001    0.0070    0.0090    0.0002   -0.0097    0.0036    0.0001   -0.0039
       29 H3     1s         0.0481    0.1432   -0.0345    0.2005    0.0497   -0.3162    0.1173    0.0132   -0.2337   -0.2051
       30 H3     *s        -0.0191   -0.0592    0.0080   -0.0473   -0.0187    0.0970   -0.0348   -0.0225    0.0748    0.0541
       31 H3     *px        0.0019    0.0045    0.0004    0.0070    0.0029   -0.0019   -0.0034    0.0029   -0.0058   -0.0066
       32 H3     *py       -0.0036   -0.0013    0.0018   -0.0048    0.0031    0.0052   -0.0010   -0.0021    0.0083    0.0045
       33 H3     *pz       -0.0033   -0.0092    0.0014   -0.0044   -0.0052    0.0118   -0.0058    0.0018    0.0021    0.0029
       34 H4     1s         0.0961    0.1467    0.0473    0.1511    0.1435    0.2359   -0.3164    0.1350   -0.0779   -0.1273
       35 H4     *s        -0.0434   -0.0443   -0.0056   -0.0494   -0.0525   -0.0710    0.0891   -0.0309    0.0186    0.0396
       36 H4     *px       -0.0062   -0.0097   -0.0022   -0.0068   -0.0070   -0.0078    0.0118   -0.0042    0.0030    0.0042
       37 H4     *py        0.0013    0.0029   -0.0007    0.0016    0.0046   -0.0036    0.0018   -0.0044    0.0028    0.0001
       38 H4     *pz       -0.0008   -0.0014   -0.0002    0.0043   -0.0026   -0.0034    0.0007    0.0032   -0.0076   -0.0067
       39 O5     1s         0.0006   -0.0006    0.0024    0.0013    0.0049    0.0014    0.0040    0.0008   -0.0007   -0.0035
       40 O5     2s        -0.0047    0.1913    0.1261   -0.0626    0.0675   -0.0074    0.1007   -0.0673    0.0254   -0.1050
       41 O5     *s        -0.0052    0.0477    0.0142   -0.0393   -0.0166   -0.0128    0.0042   -0.0422    0.0166   -0.0145
       42 O5     2px        0.0658    0.1052    0.4003   -0.0953   -0.1363    0.0869    0.0696   -0.0589   -0.1693   -0.0294
       43 O5     *px       -0.0118   -0.0009    0.0001   -0.0013    0.0035   -0.0089    0.0056    0.0018   -0.0010   -0.0036
       44 O5     2py        0.0061   -0.1997    0.0264    0.2011   -0.3909   -0.0185   -0.2831   -0.1214    0.0153    0.2105
       45 O5     *py       -0.0037    0.0087    0.0013   -0.0045   -0.0049   -0.0076   -0.0201   -0.0003    0.0047    0.0211
       46 O5     2pz       -0.0184    0.3235   -0.1059   -0.2868   -0.2125   -0.0524   -0.1329    0.2265   -0.1041    0.1576
       47 O5     *pz        0.0018   -0.0241    0.0131    0.0093    0.0134    0.0080    0.0035    0.0051   -0.0036   -0.0044
       48 O5     *d2-       0.0024    0.0048    0.0115   -0.0048    0.0062    0.0029    0.0062    0.0010   -0.0030   -0.0057
       49 O5     *d1-      -0.0009    0.0134   -0.0034   -0.0084   -0.0079   -0.0051   -0.0081    0.0049   -0.0012    0.0091
       50 O5     *d0        0.0019    0.0024    0.0014   -0.0065    0.0026    0.0018   -0.0013    0.0061   -0.0029    0.0024
       51 O5     *d1+      -0.0006   -0.0109    0.0094    0.0064    0.0080   -0.0044    0.0044   -0.0026    0.0051   -0.0058
       52 O5     *d2+      -0.0019    0.0031   -0.0077   -0.0029    0.0104    0.0007    0.0047    0.0029    0.0010   -0.0040
       53 O6     1s        -0.0009   -0.0027    0.0018    0.0012    0.0031    0.0008    0.0021    0.0008    0.0004   -0.0026
       54 O6     2s         0.0184   -0.0821   -0.1793    0.0465    0.1034    0.1393    0.0482   -0.0908   -0.0609   -0.0365
       55 O6     *s         0.0053    0.0142   -0.1067    0.0053    0.0070    0.0592    0.0041   -0.0544   -0.0399    0.0022
       56 O6     2px        0.0311    0.0272    0.5076   -0.1484   -0.0945   -0.2772   -0.0970    0.2909    0.1316    0.1139
       57 O6     *px       -0.0065    0.0092   -0.0515    0.0013   -0.0073    0.0080   -0.0058    0.0034   -0.0083    0.0074
       58 O6     2py        0.0147   -0.2017    0.2268    0.2859   -0.0922   -0.1557   -0.0696   -0.3473    0.2078    0.0406
       59 O6     *py       -0.0025    0.0160   -0.0306   -0.0030   -0.0091    0.0030   -0.0117   -0.0136    0.0007    0.0096
       60 O6     2pz        0.0349   -0.1178    0.2644   -0.0257    0.3351    0.0788    0.2928    0.0855   -0.0276   -0.2673
       61 O6     *pz       -0.0097    0.0019   -0.0309    0.0025   -0.0034    0.0103    0.0019    0.0062   -0.0086   -0.0079
       62 O6     *d2-       0.0009   -0.0080    0.0089    0.0078    0.0009   -0.0044   -0.0004   -0.0065    0.0061   -0.0006
       63 O6     *d1-      -0.0008    0.0074   -0.0047   -0.0070   -0.0013   -0.0011   -0.0024    0.0066   -0.0005    0.0029
       64 O6     *d0       -0.0016    0.0033   -0.0146    0.0010   -0.0078    0.0011   -0.0069   -0.0023   -0.0007    0.0055
       65 O6     *d1+       0.0005   -0.0087    0.0053    0.0045    0.0142    0.0024    0.0109   -0.0012    0.0025   -0.0099
       66 O6     *d2+       0.0009   -0.0005    0.0127   -0.0023   -0.0034   -0.0050   -0.0022    0.0054    0.0024    0.0027
       67 H7     1s         0.0434   -0.1326    0.5098    0.0098    0.0711   -0.1969    0.0373    0.0961    0.1629   -0.0238
       68 H7     *s        -0.0173    0.0572   -0.1966   -0.0053   -0.0124    0.0801    0.0013   -0.0415   -0.0639   -0.0089
       69 H7     *px       -0.0033    0.0115   -0.0294   -0.0041   -0.0086    0.0086   -0.0057    0.0006   -0.0094    0.0050
       70 H7     *py       -0.0019   -0.0006   -0.0155    0.0092   -0.0059    0.0023   -0.0043   -0.0145    0.0006    0.0025
       71 H7     *pz       -0.0011    0.0026   -0.0163   -0.0010    0.0059    0.0092    0.0061    0.0001   -0.0059   -0.0058
       72 C8     1s        -0.0132   -0.0082    0.0022   -0.0025    0.0029    0.0015    0.0001   -0.0006   -0.0004    0.0004
       73 C8     2s         0.4324    0.1800   -0.0385    0.0685   -0.0561   -0.0346    0.0152    0.0119   -0.0109    0.0096
       74 C8     *s        -0.1377   -0.0509   -0.0180    0.0297    0.0008    0.0006    0.0075   -0.0114    0.0052   -0.0131
       75 C8     2px        0.0305    0.0700    0.0294    0.1759   -0.1358    0.2143    0.2339    0.1379    0.0608    0.1992
       76 C8     *px       -0.0095   -0.0124   -0.0092   -0.0502    0.0279   -0.0491   -0.0379   -0.0166   -0.0020   -0.0229
       77 C8     2py        0.0122   -0.0936    0.0167   -0.2130   -0.0910    0.2334   -0.0584   -0.0332    0.2254   -0.2866
       78 C8     *py       -0.0108    0.0201   -0.0053    0.0582    0.0299   -0.0424    0.0108    0.0083   -0.0249    0.0347
       79 C8     2pz        0.0010   -0.1837    0.0584   -0.0156    0.2027    0.1515    0.0511    0.0743   -0.2134    0.3321
       80 C8     *pz       -0.0153    0.0480   -0.0214   -0.0015   -0.0468   -0.0319   -0.0020   -0.0230    0.0375   -0.0591
       81 C8     *d2-       0.0004    0.0041   -0.0002    0.0102   -0.0004   -0.0031    0.0012    0.0011   -0.0039    0.0086
       82 C8     *d1-       0.0018   -0.0121    0.0025   -0.0043    0.0047    0.0094   -0.0004    0.0028   -0.0077    0.0095
       83 C8     *d0        0.0009   -0.0055   -0.0002   -0.0049    0.0012    0.0017   -0.0073   -0.0080    0.0079   -0.0151
       84 C8     *d1+       0.0015    0.0093    0.0005    0.0036   -0.0093   -0.0012    0.0014   -0.0026    0.0041   -0.0080
       85 C8     *d2+      -0.0014    0.0011   -0.0008    0.0027   -0.0022    0.0071    0.0055    0.0042    0.0076    0.0009
       86 H9     1s         0.1676    0.1466   -0.0405    0.1797    0.1010   -0.2868   -0.0016    0.0084   -0.2550    0.2492
       87 H9     *s        -0.0706   -0.0483    0.0156   -0.0595   -0.0248    0.0891    0.0049    0.0030    0.0754   -0.0736
       88 H9     *px        0.0043    0.0037    0.0001    0.0064   -0.0005   -0.0001    0.0047    0.0025   -0.0025    0.0075
       89 H9     *py        0.0137    0.0090   -0.0028    0.0064    0.0035   -0.0120   -0.0006   -0.0002   -0.0085    0.0068
       90 H9     *pz        0.0001   -0.0040    0.0013    0.0003    0.0048    0.0041    0.0027    0.0015   -0.0036    0.0048
       91 H10    1s         0.2046    0.1434    0.0140    0.1922   -0.1568    0.2076    0.2373    0.1554    0.0578    0.2131
       92 H10    *s        -0.0903   -0.0486    0.0014   -0.0604    0.0508   -0.0605   -0.0675   -0.0428   -0.0205   -0.0621
       93 H10    *px       -0.0151   -0.0095   -0.0004   -0.0082    0.0076   -0.0070   -0.0090   -0.0053   -0.0019   -0.0072
       94 H10    *py       -0.0012   -0.0015    0.0001   -0.0044   -0.0022    0.0037   -0.0016   -0.0005    0.0045   -0.0062
       95 H10    *pz       -0.0017   -0.0039    0.0024    0.0006    0.0047    0.0020    0.0013    0.0010   -0.0043    0.0059
       96 H11    1s         0.1784    0.1796   -0.0667   -0.0815   -0.1926   -0.1249   -0.1324   -0.1374    0.2702   -0.4925
       97 H11    *s        -0.0781   -0.0573    0.0205    0.0193    0.0546    0.0337    0.0397    0.0253   -0.0665    0.1227
       98 H11    *px        0.0051    0.0046   -0.0007    0.0017   -0.0059    0.0023    0.0025    0.0014    0.0055   -0.0037
       99 H11    *py       -0.0051   -0.0060    0.0017   -0.0019    0.0022    0.0072    0.0017    0.0011   -0.0002    0.0040
      100 H11    *pz        0.0127    0.0076   -0.0028   -0.0033   -0.0067   -0.0038   -0.0050   -0.0047    0.0086   -0.0166
      101 C12    1s         0.0185   -0.0095   -0.0038   -0.0013    0.0004   -0.0034   -0.0004    0.0013    0.0012    0.0004
      102 C12    2s        -0.5948    0.1782    0.1065    0.0618   -0.0185    0.0491   -0.0065    0.0390    0.0102    0.0071
      103 C12    *s         0.1882   -0.0121   -0.0089   -0.0052   -0.0055    0.0178   -0.0045    0.0005   -0.0129    0.0042
      104 C12    2px       -0.0026   -0.1985   -0.1225   -0.1766    0.0505   -0.2441   -0.0090    0.1644    0.0159    0.0277
      105 C12    *px        0.0183    0.0603    0.0156    0.0354   -0.0040    0.0623    0.0073   -0.0450   -0.0163   -0.0111
      106 C12    2py       -0.0045   -0.0019   -0.0079   -0.0736   -0.2047   -0.0015    0.3458   -0.1580   -0.1185   -0.0588
      107 C12    *py       -0.0001    0.0080    0.0131    0.0164    0.0472   -0.0098   -0.0589    0.0381    0.0216    0.0167
      108 C12    2pz       -0.0148   -0.0276   -0.0720    0.1890   -0.0446   -0.0182    0.1540    0.3563    0.2996   -0.0645
      109 C12    *pz        0.0138    0.0118    0.0143   -0.0586    0.0124    0.0123   -0.0258   -0.0605   -0.0430    0.0124
      110 C12    *d2-      -0.0011   -0.0002   -0.0010   -0.0035   -0.0027   -0.0023   -0.0048    0.0082    0.0007    0.0014
      111 C12    *d1-      -0.0005   -0.0021   -0.0017    0.0070   -0.0008   -0.0014    0.0043    0.0121    0.0092   -0.0028
      112 C12    *d0        0.0012    0.0082    0.0029    0.0030   -0.0066    0.0076    0.0073   -0.0108   -0.0040   -0.0025
      113 C12    *d1+      -0.0005    0.0002    0.0012    0.0013   -0.0027   -0.0014   -0.0038   -0.0099   -0.0053    0.0018
      114 C12    *d2+      -0.0019   -0.0123   -0.0067   -0.0102   -0.0003   -0.0105    0.0065    0.0023   -0.0016   -0.0009
      115 H13    1s        -0.2462    0.1424    0.0912    0.1463    0.1648    0.0926   -0.3297    0.1325    0.1137    0.0580
      116 H13    *s         0.1053   -0.0433   -0.0335   -0.0500   -0.0470   -0.0302    0.1021   -0.0310   -0.0352   -0.0149
      117 H13    *px       -0.0055   -0.0003   -0.0012   -0.0001    0.0037   -0.0027   -0.0054    0.0062    0.0023    0.0016
      118 H13    *py       -0.0192    0.0098    0.0055    0.0070    0.0057    0.0062   -0.0105    0.0027    0.0036    0.0015
      119 H13    *pz       -0.0004   -0.0012   -0.0020    0.0042   -0.0010   -0.0009    0.0037    0.0072    0.0063   -0.0019
      120 H14    1s        -0.2433    0.1718    0.1416   -0.0843   -0.0760    0.1309    0.0272   -0.4408   -0.3061    0.0176
      121 H14    *s         0.1060   -0.0580   -0.0500    0.0209    0.0272   -0.0303   -0.0033    0.1011    0.0829   -0.0106
      122 H14    *px       -0.0076    0.0009    0.0027   -0.0038   -0.0007   -0.0008    0.0007   -0.0070   -0.0058    0.0005
      123 H14    *py        0.0086   -0.0053   -0.0042    0.0009   -0.0023   -0.0033    0.0063    0.0061    0.0050   -0.0014
      124 H14    *pz       -0.0168    0.0088    0.0058    0.0000   -0.0039    0.0064    0.0050   -0.0113   -0.0079   -0.0009
      125 H15    1s        -0.2579    0.1356    0.0319    0.2100   -0.1507    0.1049    0.2778    0.1607    0.1831   -0.0920
      126 H15    *s         0.1117   -0.0526   -0.0320   -0.0596    0.0552   -0.0190   -0.0791   -0.0664   -0.0649    0.0160
      127 H15    *px       -0.0068    0.0004   -0.0029    0.0026   -0.0029   -0.0009    0.0044    0.0051    0.0039   -0.0003
      128 H15    *py        0.0095   -0.0042   -0.0007   -0.0073   -0.0000   -0.0029    0.0001   -0.0071   -0.0066    0.0008
      129 H15    *pz        0.0167   -0.0092   -0.0048   -0.0057    0.0068   -0.0056   -0.0105   -0.0014   -0.0021    0.0035
      130 H16    1s         0.0691    0.1856   -0.0234   -0.1232    0.1942   -0.0477    0.1068   -0.2578    0.4075    0.3235
      131 H16    *s        -0.0291   -0.0653    0.0157    0.0385   -0.0620    0.0070   -0.0371    0.0508   -0.1002   -0.0822
      132 H16    *px        0.0027    0.0047    0.0010   -0.0002    0.0047    0.0045   -0.0049   -0.0010    0.0050    0.0031
      133 H16    *py       -0.0028   -0.0025    0.0005    0.0048   -0.0030   -0.0023   -0.0027    0.0039   -0.0085   -0.0070
      134 H16    *pz        0.0042    0.0094   -0.0009   -0.0013    0.0080   -0.0053    0.0049   -0.0078    0.0099    0.0079
 
          Orbital           21        22        23        24        25        26        27        28        29        30    
          Energy           -0.5184   -0.5040   -0.4797   -0.4588   -0.4334    0.1741    0.1935    0.2247    0.2391    0.2533
          Occ. No.          2.0000    2.0000    2.0000    2.0000    2.0000    0.0000    0.0000    0.0000    0.0000    0.0000
 
        1 C1     1s        -0.0002   -0.0022   -0.0005    0.0036   -0.0006    0.0052    0.0015    0.0106   -0.0021    0.0058
        2 C1     2s        -0.0023   -0.0012   -0.0056    0.0391    0.0145    0.0062    0.0254    0.0518   -0.0029   -0.0005
        3 C1     *s         0.0028    0.0227    0.0018   -0.0199    0.0131   -0.1092   -0.1180   -0.1721    0.0628   -0.1287
        4 C1     2px        0.0000    0.2185   -0.0802    0.3105   -0.2987    0.0027    0.0348    0.0382   -0.0649    0.0789
        5 C1     *px       -0.0024   -0.0170    0.0042   -0.0502    0.0780    0.0244   -0.0237   -0.0765   -0.0749    0.0562
        6 C1     2py        0.0293    0.1277   -0.2233   -0.2972   -0.2537    0.0127   -0.0645   -0.0400    0.0061   -0.1095
        7 C1     *py       -0.0070   -0.0179    0.0113    0.0505    0.0638    0.0126   -0.0393    0.1085    0.0072   -0.0336
        8 C1     2pz        0.0220   -0.1426   -0.3767   -0.0795    0.0584    0.0046    0.0648    0.1384   -0.0122   -0.0433
        9 C1     *pz       -0.0020    0.0503    0.0528   -0.0407    0.0014   -0.1480    0.1127   -0.1638   -0.0006   -0.1250
       10 C1     *d2-       0.0001    0.0024   -0.0095   -0.0181   -0.0119    0.0031   -0.0080    0.0068    0.0039    0.0022
       11 C1     *d1-      -0.0012    0.0174    0.0270    0.0066    0.0026    0.0065   -0.0098    0.0153   -0.0016    0.0021
       12 C1     *d0       -0.0005   -0.0033   -0.0036    0.0252    0.0029    0.0042   -0.0169   -0.0064    0.0056   -0.0017
       13 C1     *d1+       0.0009   -0.0004   -0.0267   -0.0062    0.0150   -0.0055    0.0078   -0.0118   -0.0037   -0.0057
       14 C1     *d2+      -0.0009   -0.0128    0.0125   -0.0092    0.0381    0.0008   -0.0016    0.0024    0.0041    0.0027
       15 C2     1s        -0.0000    0.0003   -0.0018    0.0003    0.0012    0.0512    0.0006   -0.0045   -0.0194   -0.0479
       16 C2     2s         0.0033    0.0327   -0.0690   -0.0309   -0.0942   -0.0912    0.0056    0.0150    0.0097    0.0582
       17 C2     *s         0.0017   -0.0049   -0.0016    0.0052   -0.0510   -1.1543    0.0047    0.0360    0.5539    1.2702
       18 C2     2px        0.2762   -0.2712    0.1022   -0.0854    0.1142   -0.0480    0.0167    0.1257    0.2360    0.0711
       19 C2     *px       -0.0392    0.0299   -0.0098    0.0022   -0.0149   -0.0980    0.0267    0.3469    0.5689    0.2111
       20 C2     2py       -0.1168   -0.0932    0.1902    0.2151    0.3256   -0.1198   -0.0245   -0.0781    0.0560    0.1275
       21 C2     *py        0.0139    0.0140   -0.0467   -0.0067   -0.0160   -0.2060   -0.0652   -0.1858    0.0476    0.1623
       22 C2     2pz       -0.2034   -0.0157    0.1027    0.0785   -0.0283    0.0221    0.1332    0.1441   -0.0427   -0.0332
       23 C2     *pz        0.0273    0.0017    0.0030    0.0031    0.0129    0.0924    0.2684    0.4466   -0.0989    0.0127
       24 C2     *d2-       0.0037   -0.0007   -0.0053   -0.0141   -0.0031    0.0011   -0.0027    0.0011    0.0018   -0.0113
       25 C2     *d1-      -0.0077    0.0049    0.0110    0.0051   -0.0022   -0.0019    0.0104   -0.0067    0.0011    0.0002
       26 C2     *d0       -0.0089    0.0048    0.0041    0.0094    0.0059    0.0023   -0.0067   -0.0045   -0.0084    0.0145
       27 C2     *d1+       0.0068    0.0011   -0.0021   -0.0034    0.0018   -0.0001   -0.0095   -0.0023    0.0023    0.0004
       28 C2     *d2+       0.0075   -0.0153    0.0072   -0.0062    0.0147   -0.0028    0.0036   -0.0006    0.0188   -0.0003
       29 H3     1s        -0.3409    0.0696    0.1468    0.2119    0.0387    0.0150    0.0163   -0.0555   -0.0015    0.0507
       30 H3     *s         0.0876   -0.0125    0.0035   -0.0629   -0.0299    0.4172   -0.3014   -0.2467    0.2786   -0.4630
       31 H3     *px       -0.0017   -0.0051    0.0034    0.0012    0.0030    0.0023   -0.0059    0.0012   -0.0042    0.0001
       32 H3     *py        0.0064   -0.0036   -0.0027   -0.0011    0.0062   -0.0023    0.0043    0.0006   -0.0018    0.0026
       33 H3     *pz        0.0105   -0.0025   -0.0018   -0.0065   -0.0032   -0.0021    0.0008    0.0019   -0.0045    0.0100
       34 H4     1s         0.2842   -0.2928    0.0945   -0.1199    0.1099   -0.0005    0.0300   -0.0436    0.0283   -0.1048
       35 H4     *s        -0.0707    0.0697   -0.0141    0.0165    0.0093    0.6076   -0.1200   -0.6059   -1.1635   -0.8527
       36 H4     *px       -0.0098    0.0091   -0.0035    0.0030   -0.0029   -0.0083    0.0043    0.0048    0.0181    0.0091
       37 H4     *py       -0.0026   -0.0012    0.0041    0.0049    0.0023   -0.0028   -0.0003    0.0032    0.0040   -0.0035
       38 H4     *pz       -0.0046    0.0009    0.0012    0.0019    0.0001    0.0018   -0.0069    0.0031   -0.0001    0.0013
       39 O5     1s         0.0000    0.0015    0.0000   -0.0025   -0.0003   -0.0015    0.0028   -0.0033   -0.0022    0.0002
       40 O5     2s         0.0055    0.0333    0.0271   -0.1393   -0.0226   -0.0477   -0.1405   -0.0899    0.0618   -0.0769
       41 O5     *s         0.0018    0.0019    0.0150   -0.0460   -0.0088   -0.0236   -0.1505   -0.0031    0.0930   -0.0849
       42 O5     2px        0.0434    0.4632    0.1420   -0.2839    0.4894   -0.0485    0.1383    0.0664    0.0273    0.0169
       43 O5     *px        0.0032    0.0218    0.0117   -0.0257    0.0433   -0.0279    0.0808    0.0121   -0.0025   -0.0026
       44 O5     2py        0.0239    0.0914   -0.2284    0.3046    0.4566    0.0408   -0.1486   -0.1025    0.1021    0.0194
       45 O5     *py        0.0010   -0.0016   -0.0050    0.0299    0.0367    0.0105   -0.0573   -0.0271    0.0459   -0.0008
       46 O5     2pz       -0.0104    0.0484    0.2108   -0.0164   -0.0495    0.0610   -0.1783    0.0876    0.0871   -0.0244
       47 O5     *pz        0.0005    0.0077   -0.0038   -0.0046    0.0092   -0.0039    0.0107   -0.0153    0.0539   -0.0650
       48 O5     *d2-       0.0006    0.0072    0.0033   -0.0065    0.0020    0.0009    0.0016    0.0000    0.0004   -0.0002
       49 O5     *d1-      -0.0006   -0.0017    0.0131    0.0008   -0.0038   -0.0010    0.0065   -0.0022   -0.0005    0.0009
       50 O5     *d0       -0.0005   -0.0001    0.0008    0.0115    0.0010   -0.0039    0.0089    0.0012   -0.0032    0.0017
       51 O5     *d1+       0.0007   -0.0052   -0.0048   -0.0022    0.0012   -0.0000   -0.0044    0.0011    0.0029   -0.0011
       52 O5     *d2+      -0.0012   -0.0060    0.0021   -0.0017   -0.0054    0.0017   -0.0016    0.0009   -0.0024    0.0010
       53 O6     1s         0.0004   -0.0004   -0.0032   -0.0013    0.0009    0.0171   -0.0220    0.0059   -0.0026    0.0148
       54 O6     2s        -0.0028    0.0753   -0.0231   -0.0380    0.0703   -0.0986    0.1824   -0.0354   -0.0729   -0.0075
       55 O6     *s        -0.0057    0.0538    0.0257   -0.0160    0.0345   -0.3548    0.5280   -0.1396   -0.0221   -0.2774
       56 O6     2px        0.0057   -0.2440   -0.0740    0.2624   -0.1460   -0.1119    0.2601   -0.0734    0.0085   -0.1243
       57 O6     *px       -0.0025    0.0021   -0.0003    0.0152    0.0018   -0.0974    0.1765   -0.0520    0.0107   -0.1113
       58 O6     2py        0.0019   -0.0119    0.4223   -0.3875   -0.2804   -0.0870   -0.0189   -0.0314    0.0474   -0.0683
       59 O6     *py       -0.0023    0.0039    0.0280   -0.0195   -0.0150   -0.0635    0.0355   -0.0344    0.0320   -0.0692
       60 O6     2pz        0.0208    0.0122   -0.3444   -0.0049    0.1469   -0.0188   -0.1395   -0.0552    0.1170   -0.1575
       61 O6     *pz       -0.0001    0.0056   -0.0309    0.0033    0.0221   -0.0390    0.0050   -0.0581    0.0944   -0.1499
       62 O6     *d2-      -0.0001   -0.0033    0.0042   -0.0052   -0.0068   -0.0039    0.0057   -0.0016   -0.0001   -0.0023
       63 O6     *d1-      -0.0005   -0.0040    0.0003    0.0048   -0.0048   -0.0011   -0.0047   -0.0014    0.0017   -0.0013
       64 O6     *d0       -0.0005   -0.0008    0.0002    0.0044    0.0012    0.0019   -0.0088   -0.0008   -0.0002    0.0032
       65 O6     *d1+       0.0006   -0.0027   -0.0078   -0.0031   -0.0027   -0.0013    0.0040   -0.0004    0.0008   -0.0037
       66 O6     *d2+       0.0009   -0.0025   -0.0029    0.0058    0.0023   -0.0037    0.0076   -0.0020    0.0019   -0.0028
       67 H7     1s         0.0150   -0.1819   -0.0359    0.0360   -0.1692    0.0710   -0.0835    0.0352    0.0009    0.0727
       68 H7     *s        -0.0041    0.0747    0.0146   -0.0341    0.0690    0.5884   -0.8774    0.3377   -0.1143    0.7058
       69 H7     *px       -0.0009    0.0081    0.0007    0.0049    0.0098   -0.0097    0.0228   -0.0027    0.0021   -0.0120
       70 H7     *py       -0.0010    0.0050    0.0154   -0.0133   -0.0060   -0.0020    0.0014   -0.0003    0.0017   -0.0076
       71 H7     *pz       -0.0002    0.0038   -0.0104    0.0018    0.0064   -0.0040   -0.0078   -0.0029    0.0046   -0.0009
       72 C8     1s         0.0001   -0.0001    0.0001    0.0004   -0.0000    0.0420    0.0284   -0.0310   -0.0105    0.0545
       73 C8     2s        -0.0013    0.0165    0.0684    0.0984   -0.0061   -0.0345   -0.1189    0.0717    0.0259   -0.0692
       74 C8     *s        -0.0006    0.0080    0.0022    0.0122    0.0032   -0.9220   -0.8141    0.7864    0.3281   -1.4125
       75 C8     2px       -0.3071   -0.2381   -0.0592   -0.1696    0.0654   -0.0403    0.0207    0.1269    0.2103    0.0456
       76 C8     *px        0.0423    0.0199    0.0162    0.0216   -0.0175   -0.0557    0.0343    0.3424    0.4978    0.1729
       77 C8     2py       -0.2600   -0.0297    0.2236    0.1770    0.0389    0.0240   -0.0007   -0.1616    0.1267    0.1181
       78 C8     *py        0.0343   -0.0001   -0.0278   -0.0228   -0.0084    0.0051    0.0264   -0.4299    0.3149    0.2078
       79 C8     2pz       -0.0252    0.0651    0.2894    0.2195   -0.0308    0.1109    0.1096    0.0979   -0.0235    0.1215
       80 C8     *pz        0.0034   -0.0055   -0.0327   -0.0464    0.0006    0.1426    0.3672    0.3214   -0.0759    0.1967
       81 C8     *d2-       0.0045   -0.0010   -0.0091   -0.0029   -0.0028    0.0040   -0.0026    0.0093   -0.0021   -0.0048
       82 C8     *d1-      -0.0024    0.0049    0.0087    0.0091   -0.0048    0.0006    0.0050   -0.0003   -0.0001    0.0068
       83 C8     *d0       -0.0003    0.0024    0.0021    0.0126    0.0009   -0.0049    0.0097   -0.0028   -0.0101    0.0105
       84 C8     *d1+      -0.0006    0.0004   -0.0105   -0.0058   -0.0044   -0.0006   -0.0037    0.0001    0.0000   -0.0050
       85 C8     *d2+      -0.0172   -0.0148    0.0060   -0.0034    0.0135   -0.0011    0.0013    0.0018    0.0185    0.0053
       86 H9     1s         0.3535    0.1228   -0.1768   -0.0850   -0.0950    0.0428   -0.0397   -0.0288    0.0075   -0.0158
       87 H9     *s        -0.0937   -0.0298    0.0379   -0.0000   -0.0108    0.2940    0.3264   -0.8478    0.6468    1.0048
       88 H9     *px       -0.0008   -0.0038   -0.0028   -0.0043    0.0015   -0.0009    0.0014   -0.0025   -0.0033    0.0058
       89 H9     *py        0.0132    0.0048   -0.0044   -0.0012   -0.0034    0.0034    0.0041   -0.0094    0.0086    0.0146
       90 H9     *pz       -0.0019    0.0006    0.0049    0.0033   -0.0034    0.0003   -0.0003   -0.0009   -0.0001   -0.0003
       91 H10    1s        -0.3406   -0.2549    0.0013   -0.1363    0.0964    0.0277   -0.0261   -0.0377    0.0450   -0.0280
       92 H10    *s         0.0886    0.0686    0.0016    0.0061    0.0084    0.3898    0.2413   -0.8633   -1.0082    0.2307
       93 H10    *px        0.0120    0.0078   -0.0006    0.0037   -0.0027   -0.0046   -0.0032    0.0099    0.0154   -0.0055
       94 H10    *py       -0.0045   -0.0011    0.0048    0.0030    0.0018    0.0025   -0.0013    0.0004   -0.0022   -0.0044
       95 H10    *pz        0.0009    0.0022    0.0057    0.0030    0.0022    0.0008   -0.0005   -0.0011   -0.0023   -0.0004
       96 H11    1s         0.0166    0.0106   -0.1365   -0.0219    0.0240   -0.0211    0.0806    0.0570   -0.0488    0.0324
       97 H11    *s        -0.0034   -0.0053    0.0243   -0.0054   -0.0046    0.4710    0.8693    0.5636   -0.2049    0.8589
       98 H11    *px       -0.0065   -0.0042   -0.0026   -0.0042    0.0018   -0.0005    0.0040    0.0003   -0.0060    0.0050
       99 H11    *py       -0.0059   -0.0012    0.0062    0.0045    0.0007    0.0018   -0.0060    0.0006    0.0013   -0.0080
      100 H11    *pz        0.0004    0.0017   -0.0008    0.0028    0.0006    0.0067    0.0068    0.0071    0.0005    0.0076
      101 C12    1s         0.0001   -0.0002   -0.0002    0.0001   -0.0004    0.0364    0.0180   -0.0131    0.0526   -0.0353
      102 C12    2s        -0.0001   -0.0336    0.0127   -0.0528    0.0957   -0.0823    0.0039    0.0262   -0.0554    0.0411
      103 C12    *s        -0.0018   -0.0103   -0.0018    0.0010    0.0405   -0.8143   -0.3654    0.2385   -1.4178    0.8311
      104 C12    2px       -0.0253   -0.1759    0.0870   -0.2837    0.3253    0.0825    0.0711    0.0209    0.2022   -0.0387
      105 C12    *px        0.0008    0.0276   -0.0145    0.0215   -0.0267    0.1773    0.0779    0.0625    0.3277   -0.0007
      106 C12    2py        0.3166   -0.2518    0.1247    0.1293    0.0460   -0.0172    0.0111   -0.1482    0.0773    0.0730
      107 C12    *py       -0.0417    0.0274   -0.0059   -0.0038   -0.0070   -0.0464    0.0640   -0.3984    0.2130    0.0964
      108 C12    2pz        0.2138    0.2190    0.1394    0.0806    0.0288    0.0394    0.1087    0.1367    0.0041    0.0110
      109 C12    *pz       -0.0306   -0.0401   -0.0125    0.0077   -0.0216    0.1373    0.1813    0.4221   -0.0750    0.0991
      110 C12    *d2-      -0.0058    0.0058   -0.0081   -0.0138   -0.0052    0.0009   -0.0019    0.0013   -0.0022   -0.0137
      111 C12    *d1-       0.0076    0.0091    0.0056    0.0037    0.0021    0.0020    0.0083    0.0028   -0.0029    0.0012
      112 C12    *d0        0.0091   -0.0044    0.0038    0.0115   -0.0062    0.0002   -0.0025   -0.0049   -0.0028    0.0146
      113 C12    *d1+      -0.0048   -0.0079   -0.0124   -0.0039   -0.0002    0.0023   -0.0079    0.0076    0.0018    0.0023
      114 C12    *d2+       0.0061   -0.0133    0.0075   -0.0057    0.0147   -0.0007   -0.0002   -0.0005    0.0149    0.0042
      115 H13    1s        -0.3095    0.3065   -0.1606   -0.0883   -0.1228    0.0151    0.0148   -0.0305    0.0048   -0.0927
      116 H13    *s         0.0824   -0.0784    0.0315    0.0170   -0.0043    0.3336    0.1861   -0.6929    1.0096   -0.1550
      117 H13    *px       -0.0049    0.0002   -0.0018   -0.0063    0.0011    0.0019    0.0029   -0.0055    0.0048    0.0031
      118 H13    *py       -0.0101    0.0104   -0.0044   -0.0007   -0.0039    0.0030    0.0009   -0.0055    0.0151   -0.0010
      119 H13    *pz        0.0048    0.0035    0.0030    0.0019    0.0002   -0.0017   -0.0014    0.0005    0.0026   -0.0023
      120 H14    1s        -0.0298   -0.2745   -0.1084    0.0841   -0.0900    0.0038   -0.0104    0.0787    0.0042    0.0534
      121 H14    *s         0.0067    0.0625    0.0146   -0.0108    0.0085    0.5639    0.4497    0.7689    0.5749   -0.3763
      122 H14    *px       -0.0010   -0.0085   -0.0015   -0.0038    0.0056    0.0049    0.0065    0.0035   -0.0018   -0.0027
      123 H14    *py        0.0076    0.0011    0.0047    0.0011    0.0033   -0.0010   -0.0037   -0.0029   -0.0049   -0.0019
      124 H14    *pz        0.0033   -0.0068   -0.0014    0.0043   -0.0032    0.0022    0.0042    0.0069    0.0076   -0.0085
      125 H15    1s         0.3395    0.1354    0.1820    0.2312   -0.0350    0.0159    0.0197   -0.0493    0.0114    0.0475
      126 H15    *s        -0.0936   -0.0121   -0.0322   -0.0681    0.0206    0.2808   -0.1487   -0.3264    0.6318   -0.5176
      127 H15    *px        0.0059    0.0001    0.0075   -0.0004    0.0050    0.0026   -0.0035   -0.0002    0.0017   -0.0013
      128 H15    *py       -0.0019   -0.0085   -0.0001   -0.0019    0.0011    0.0008    0.0019    0.0009   -0.0079    0.0001
      129 H15    *pz       -0.0115   -0.0011   -0.0024   -0.0082    0.0019   -0.0014    0.0004    0.0029   -0.0087    0.0102
      130 H16    1s         0.0371    0.0706   -0.0796    0.0554    0.1143    0.0241   -0.0267    0.0956   -0.0360    0.0506
      131 H16    *s        -0.0088   -0.0209    0.0220   -0.0090   -0.0134    0.6088    0.4683    0.8903   -0.1163   -0.6374
      132 H16    *px        0.0067   -0.0038    0.0015   -0.0014    0.0044    0.0004    0.0013    0.0020   -0.0056   -0.0008
      133 H16    *py       -0.0034   -0.0029    0.0065    0.0028    0.0037   -0.0050   -0.0074   -0.0045   -0.0017    0.0007
      134 H16    *pz       -0.0028    0.0035   -0.0006    0.0030    0.0044    0.0022    0.0060    0.0080   -0.0007   -0.0126
 
          Orbital           31        32        33        34        35        36        37        38        39        40    
          Energy            0.2564    0.2600    0.2835    0.3041    0.3114    0.3262    0.3487    0.3919    0.4158    0.4237
          Occ. No.          0.0000    0.0000    0.0000    0.0000    0.0000    0.0000    0.0000    0.0000    0.0000    0.0000
 
        1 C1     1s        -0.0039    0.0035   -0.0051    0.0036   -0.0135    0.0010    0.1166    0.0158    0.0019    0.0221
        2 C1     2s         0.0046   -0.0049   -0.0164   -0.0017   -0.0275   -0.0003   -0.1284   -0.1971   -0.0148   -0.1465
        3 C1     *s         0.1144   -0.1307    0.1784   -0.1227    0.4433   -0.0214   -3.8745   -0.8617   -0.1055   -0.9526
        4 C1     2px        0.1340    0.0131   -0.0201   -0.0002   -0.0599   -0.0012    0.0470    0.0375    0.4272   -0.2972
        5 C1     *px        0.0309    0.0337   -0.1521   -0.1121   -0.2825    0.0145    0.2829    0.5691    2.3659   -1.4808
        6 C1     2py        0.0830    0.0838    0.0541   -0.0197    0.0952    0.0175   -0.0822   -0.0807    0.3222    0.3947
        7 C1     *py        0.0207    0.0095    0.1479   -0.1534    0.3764    0.0858   -0.4660   -0.8735    1.7203    1.9621
        8 C1     2pz       -0.0241    0.0799   -0.1002    0.0184   -0.1391    0.0096    0.1803   -0.5297   -0.0131   -0.0597
        9 C1     *pz        0.0071    0.0508   -0.1311    0.0509   -0.2023    0.0354    0.8641   -1.8181   -0.0418    0.3242
       10 C1     *d2-       0.0005   -0.0128    0.0184   -0.0036   -0.0094   -0.0018   -0.0032   -0.0191    0.0084    0.0047
       11 C1     *d1-      -0.0077    0.0019    0.0097    0.0121    0.0035    0.0017   -0.0122   -0.0160   -0.0031   -0.0379
       12 C1     *d0       -0.0037    0.0003    0.0228   -0.0021    0.0044   -0.0004    0.0172    0.0265    0.0018   -0.0051
       13 C1     *d1+      -0.0003   -0.0071   -0.0023    0.0173   -0.0029   -0.0008    0.0088    0.0113   -0.0033    0.0298
       14 C1     *d2+       0.0093    0.0010    0.0039   -0.0030   -0.0027   -0.0008    0.0007   -0.0036   -0.0301    0.0004
       15 C2     1s         0.0520    0.0153    0.0035   -0.0047    0.0073    0.0024   -0.0539   -0.0436    0.0654    0.0144
       16 C2     2s        -0.0837   -0.0570   -0.0038    0.0030   -0.0021    0.0008   -0.0752   -0.0794    0.1233    0.0126
       17 C2     *s        -1.3258   -0.3380   -0.1104    0.1960   -0.2828   -0.0664    1.2761    0.8209   -1.6715   -0.6670
       18 C2     2px        0.1525   -0.1283    0.0873    0.0882   -0.1175    0.2129   -0.0398    0.0184    0.0688    0.0266
       19 C2     *px        0.4639   -0.3488    0.3304    0.2658   -0.1508    0.6761   -0.4943   -0.4488    0.0191    0.8670
       20 C2     2py       -0.1529    0.0963    0.0162   -0.0441    0.0955   -0.0606   -0.0875   -0.0688    0.1332    0.0768
       21 C2     *py       -0.2677    0.2130    0.0090   -0.1835    0.2981   -0.1648   -1.0741   -0.7910    1.8260    0.3671
       22 C2     2pz       -0.0741    0.1371    0.2350    0.2565   -0.0308   -0.1219   -0.0135    0.0338    0.0023    0.0384
       23 C2     *pz       -0.2593    0.4337    0.5882    0.7235   -0.1263   -0.4037   -0.3293    0.7499    0.0468    0.0119
       24 C2     *d2-       0.0037    0.0026   -0.0029    0.0023    0.0053    0.0045   -0.0048    0.0063   -0.0063    0.0138
       25 C2     *d1-       0.0047    0.0045    0.0172   -0.0010    0.0073   -0.0078   -0.0025    0.0333   -0.0063    0.0256
       26 C2     *d0       -0.0113    0.0016   -0.0014   -0.0058    0.0016   -0.0115    0.0009   -0.0119   -0.0072    0.0061
[...]
   121 H14    *s         0.0137   -0.0098   -0.0075   -0.0044    0.0018   -0.0045
   122 H14    *px       -0.0067    0.0064    0.0018   -0.0017    0.0022   -0.0015
   123 H14    *py       -0.0039   -0.0032    0.0007   -0.0001    0.0007   -0.0001
   124 H14    *pz       -0.0012   -0.0030   -0.0017   -0.0009   -0.0008    0.0006
   125 H15    1s        -0.0082   -0.3475   -0.0066    0.0076    0.0084    0.0152
   126 H15    *s         0.0057    0.0726    0.0215   -0.0152   -0.0018    0.0369
   127 H15    *px       -0.0063   -0.0024    0.0036    0.0010    0.0002    0.0001
   128 H15    *py       -0.0053    0.0041   -0.0003    0.0001   -0.0012   -0.0007
   129 H15    *pz       -0.0001    0.0098    0.0022    0.0003   -0.0017   -0.0011
   130 H16    1s         0.0386    0.0125    0.0500    0.0074    0.0328   -0.0041
   131 H16    *s        -0.0164   -0.0056    0.0058    0.0029    0.0002   -0.0122
   132 H16    *px       -0.0044    0.0028    0.0017    0.0008    0.0008    0.0002
   133 H16    *py       -0.0075   -0.0041    0.0017    0.0017    0.0015    0.0015
   134 H16    *pz       -0.0002   -0.0024    0.0017   -0.0004    0.0014    0.0001
--
 
      Von Neumann Entropy (Root   1) =  0.23476
 

      Mulliken population analysis for root number:  1
      -----------------------------------------------
 
 
++    Molecular charges:
      ------------------
 
      Mulliken charges per centre and basis function type
      ---------------------------------------------------
 
                C1      C2      H3      H4      O5      O6      H7      C8      H9      H10     H11     C12   
      1s       2.0043  2.0040  1.2622  1.2672  2.0019  2.0011  1.0610  2.0041  1.2655  1.2683  1.2719  2.0040
      2s       1.3851  1.4479  0.0000  0.0000  1.8336  1.8673  0.0000  1.4499  0.0000  0.0000  0.0000  1.4493
      2px      1.0748  1.1627  0.0000  0.0000  1.6845  1.4947  0.0000  1.1574  0.0000  0.0000  0.0000  1.0942
      2pz      0.8885  1.1735  0.0000  0.0000  1.1081  1.2584  0.0000  1.1186  0.0000  0.0000  0.0000  1.1774
      2py      1.0409  1.1102  0.0000  0.0000  1.5826  1.6847  0.0000  1.1507  0.0000  0.0000  0.0000  1.1754
      *s      -0.1832 -0.4489 -0.3275 -0.3289  0.0408 -0.0748 -0.3208 -0.4566 -0.3328 -0.3298 -0.3208 -0.4568
      *px     -0.0682 -0.1806  0.0074  0.0210  0.0546 -0.0684  0.0369 -0.1799  0.0062  0.0210  0.0066 -0.1825
      *pz     -0.0808 -0.1736  0.0153  0.0054 -0.0714 -0.0343  0.0164 -0.1895  0.0048  0.0048  0.0168 -0.1892
      *py     -0.0833 -0.1791  0.0085  0.0043  0.0541  0.0225  0.0237 -0.1784  0.0199  0.0050  0.0072 -0.1769
      *d2+     0.0399  0.0180  0.0000  0.0000  0.0013  0.0024  0.0000  0.0172  0.0000  0.0000  0.0000  0.0172
      *d1+     0.0316  0.0053  0.0000  0.0000  0.0046  0.0049  0.0000  0.0084  0.0000  0.0000  0.0000  0.0093
      *d0      0.0308  0.0118  0.0000  0.0000  0.0036  0.0028  0.0000  0.0134  0.0000  0.0000  0.0000  0.0120
      *d1-     0.0382  0.0131  0.0000  0.0000  0.0064  0.0022  0.0000  0.0122  0.0000  0.0000  0.0000  0.0090
      *d2-     0.0257  0.0090  0.0000  0.0000  0.0022  0.0031  0.0000  0.0059  0.0000  0.0000  0.0000  0.0095
      Total    6.1444  5.9732  0.9660  0.9690  8.3068  8.1668  0.8173  5.9334  0.9636  0.9693  0.9816  5.9519
 
      N-E     -0.1444  0.0268  0.0340  0.0310 -0.3068 -0.1668  0.1827  0.0666  0.0364  0.0307  0.0184  0.0481
 
                H13     H14     H15     H16   
      1s       1.2661  1.2700  1.2576  1.2651
      2s       0.0000  0.0000  0.0000  0.0000
      2px      0.0000  0.0000  0.0000  0.0000
      2pz      0.0000  0.0000  0.0000  0.0000
      2py      0.0000  0.0000  0.0000  0.0000
      *s      -0.3331 -0.3267 -0.3359 -0.3309
      *px      0.0055  0.0068  0.0066  0.0067
      *pz      0.0055  0.0158  0.0164  0.0162
      *py      0.0199  0.0084  0.0085  0.0082
      *d2+     0.0000  0.0000  0.0000  0.0000
      *d1+     0.0000  0.0000  0.0000  0.0000
      *d0      0.0000  0.0000  0.0000  0.0000
      *d1-     0.0000  0.0000  0.0000  0.0000
      *d2-     0.0000  0.0000  0.0000  0.0000
      Total    0.9639  0.9744  0.9531  0.9654
 
      N-E      0.0361  0.0256  0.0469  0.0346
 
      Total electronic charge=   50.000000
 
      Total            charge=   -0.000000
--
 
 

      Expectation values of various properties for root number:  1
      -----------------------------------------------------------
 
 
++    Molecular properties:
      ---------------------
 
      Charge (e):
                      =   -0.0000
      Dipole Moment (Debye):
      Origin of the operator (Ang)=    0.0000    0.0000    0.0000
                   X=  6.6124E-01               Y=  1.5222E+00               Z= -8.2090E-01           Total=  1.8515E+00
      Quadrupole Moment (Debye*Ang):
      Origin of the operator (Ang)=    0.0000   -0.0001    0.0002
                  XX= -3.7635E+01              XY=  1.0310E+00              XZ=  2.8254E+00              YY= -3.9150E+01
                  YZ=  2.4694E+00              ZZ= -3.6669E+01
      In traceless form (Debye*Ang)
                  XX=  2.7454E-01              XY=  1.5465E+00              XZ=  4.2381E+00              YY= -1.9979E+00
                  YZ=  3.7041E+00              ZZ=  1.7234E+00
--
 
      Von Neumann Entropy (Root   2) =  1.07497
 

      Mulliken population analysis for root number:  2
      -----------------------------------------------
 
 
++    Molecular charges:
      ------------------
 
      Mulliken charges per centre and basis function type
      ---------------------------------------------------
 
                C1      C2      H3      H4      O5      O6      H7      C8      H9      H10     H11     C12   
      1s       2.0043  2.0040  1.2627  1.2673  2.0019  2.0011  1.0600  2.0041  1.2652  1.2680  1.2767  2.0040
      2s       1.3853  1.4472  0.0000  0.0000  1.8580  1.8873  0.0000  1.4512  0.0000  0.0000  0.0000  1.4486
      2px      1.0768  1.1628  0.0000  0.0000  1.4672  1.5398  0.0000  1.1579  0.0000  0.0000  0.0000  1.0910
      2pz      0.8928  1.1735  0.0000  0.0000  1.3874  1.4086  0.0000  1.1194  0.0000  0.0000  0.0000  1.1775
      2py      1.0423  1.1033  0.0000  0.0000  1.4365  1.4573  0.0000  1.1515  0.0000  0.0000  0.0000  1.1754
      *s      -0.1841 -0.4489 -0.3275 -0.3296  0.0409 -0.0822 -0.3008 -0.4572 -0.3322 -0.3288 -0.3186 -0.4564
      *px     -0.0713 -0.1803  0.0074  0.0210  0.0496 -0.0636  0.0369 -0.1797  0.0062  0.0210  0.0066 -0.1824
      *pz     -0.0799 -0.1738  0.0153  0.0054 -0.0394 -0.0103  0.0196 -0.1874  0.0047  0.0048  0.0169 -0.1897
      *py     -0.0844 -0.1796  0.0084  0.0043  0.0518  0.0179  0.0215 -0.1783  0.0199  0.0050  0.0072 -0.1768
      *d2+     0.0364  0.0180  0.0000  0.0000  0.0014  0.0024  0.0000  0.0171  0.0000  0.0000  0.0000  0.0172
      *d1+     0.0296  0.0053  0.0000  0.0000  0.0051  0.0050  0.0000  0.0086  0.0000  0.0000  0.0000  0.0094
      *d0      0.0356  0.0118  0.0000  0.0000  0.0054  0.0044  0.0000  0.0142  0.0000  0.0000  0.0000  0.0119
      *d1-     0.0381  0.0131  0.0000  0.0000  0.0067  0.0037  0.0000  0.0124  0.0000  0.0000  0.0000  0.0089
      *d2-     0.0265  0.0090  0.0000  0.0000  0.0020  0.0030  0.0000  0.0059  0.0000  0.0000  0.0000  0.0096
      Total    6.1480  5.9654  0.9663  0.9684  8.2743  8.1745  0.8373  5.9399  0.9639  0.9700  0.9889  5.9483
 
      N-E     -0.1480  0.0346  0.0337  0.0316 -0.2743 -0.1745  0.1627  0.0601  0.0361  0.0300  0.0111  0.0517
 
                H13     H14     H15     H16   
      1s       1.2662  1.2689  1.2579  1.2641
      2s       0.0000  0.0000  0.0000  0.0000
      2px      0.0000  0.0000  0.0000  0.0000
      2pz      0.0000  0.0000  0.0000  0.0000
      2py      0.0000  0.0000  0.0000  0.0000
      *s      -0.3341 -0.3266 -0.3351 -0.3309
      *px      0.0055  0.0068  0.0066  0.0067
      *pz      0.0055  0.0158  0.0164  0.0162
      *py      0.0199  0.0084  0.0084  0.0082
      *d2+     0.0000  0.0000  0.0000  0.0000
      *d1+     0.0000  0.0000  0.0000  0.0000
      *d0      0.0000  0.0000  0.0000  0.0000
      *d1-     0.0000  0.0000  0.0000  0.0000
      *d2-     0.0000  0.0000  0.0000  0.0000
      Total    0.9630  0.9732  0.9543  0.9643
 
      N-E      0.0370  0.0268  0.0457  0.0357
 
      Total electronic charge=   50.000000
 
      Total            charge=   -0.000000
--
 
 

      Expectation values of various properties for root number:  2
      -----------------------------------------------------------
 
 
++    Molecular properties:
      ---------------------
 
      Charge (e):
                      =   -0.0000
      Dipole Moment (Debye):
      Origin of the operator (Ang)=    0.0000    0.0000    0.0000
                   X=  6.5345E-01               Y=  1.3415E+00               Z= -1.0135E+00           Total=  1.8039E+00
      Quadrupole Moment (Debye*Ang):
      Origin of the operator (Ang)=    0.0000   -0.0001    0.0002
                  XX= -3.7384E+01              XY=  1.3816E+00              XZ=  3.1566E+00              YY= -3.8464E+01
                  YZ=  1.4933E+00              ZZ= -3.8479E+01
      In traceless form (Debye*Ang)
                  XX=  1.0871E+00              XY=  2.0724E+00              XZ=  4.7349E+00              YY= -5.3228E-01
                  YZ=  2.2400E+00              ZZ= -5.5479E-01
--
 
      Von Neumann Entropy (Root   3) =  1.10422
 

      Mulliken population analysis for root number:  3
      -----------------------------------------------
 
 
++    Molecular charges:
      ------------------
 
      Mulliken charges per centre and basis function type
      ---------------------------------------------------
 
                C1      C2      H3      H4      O5      O6      H7      C8      H9      H10     H11     C12   
      1s       2.0043  2.0040  1.2632  1.2673  2.0019  2.0011  1.0624  2.0041  1.2652  1.2680  1.2762  2.0040
      2s       1.3852  1.4473  0.0000  0.0000  1.8571  1.8919  0.0000  1.4510  0.0000  0.0000  0.0000  1.4489
      2px      1.0755  1.1625  0.0000  0.0000  1.4828  1.5263  0.0000  1.1577  0.0000  0.0000  0.0000  1.0902
      2pz      0.8919  1.1737  0.0000  0.0000  1.3213  1.4306  0.0000  1.1190  0.0000  0.0000  0.0000  1.1774
      2py      1.0428  1.1085  0.0000  0.0000  1.5458  1.3716  0.0000  1.1515  0.0000  0.0000  0.0000  1.1753
      *s      -0.1841 -0.4487 -0.3289 -0.3299  0.0386 -0.0790 -0.2996 -0.4572 -0.3319 -0.3291 -0.3186 -0.4567
      *px     -0.0690 -0.1805  0.0074  0.0210  0.0479 -0.0619  0.0377 -0.1797  0.0062  0.0210  0.0066 -0.1824
      *pz     -0.0805 -0.1747  0.0153  0.0054 -0.0450 -0.0010  0.0195 -0.1878  0.0048  0.0048  0.0169 -0.1894
      *py     -0.0834 -0.1799  0.0085  0.0043  0.0575  0.0170  0.0205 -0.1782  0.0199  0.0050  0.0072 -0.1768
      *d2+     0.0376  0.0180  0.0000  0.0000  0.0012  0.0026  0.0000  0.0172  0.0000  0.0000  0.0000  0.0172
      *d1+     0.0312  0.0053  0.0000  0.0000  0.0053  0.0045  0.0000  0.0086  0.0000  0.0000  0.0000  0.0094
      *d0      0.0349  0.0118  0.0000  0.0000  0.0054  0.0042  0.0000  0.0142  0.0000  0.0000  0.0000  0.0120
      *d1-     0.0373  0.0131  0.0000  0.0000  0.0070  0.0036  0.0000  0.0124  0.0000  0.0000  0.0000  0.0089
      *d2-     0.0265  0.0090  0.0000  0.0000  0.0020  0.0032  0.0000  0.0059  0.0000  0.0000  0.0000  0.0095
      Total    6.1503  5.9693  0.9655  0.9682  8.3286  8.1147  0.8405  5.9386  0.9642  0.9698  0.9882  5.9476
 
      N-E     -0.1503  0.0307  0.0345  0.0318 -0.3286 -0.1147  0.1595  0.0614  0.0358  0.0302  0.0118  0.0524
 
                H13     H14     H15     H16   
      1s       1.2662  1.2691  1.2579  1.2638
      2s       0.0000  0.0000  0.0000  0.0000
      2px      0.0000  0.0000  0.0000  0.0000
      2pz      0.0000  0.0000  0.0000  0.0000
      2py      0.0000  0.0000  0.0000  0.0000
      *s      -0.3337 -0.3267 -0.3355 -0.3309
      *px      0.0055  0.0068  0.0065  0.0067
      *pz      0.0055  0.0158  0.0164  0.0162
      *py      0.0199  0.0084  0.0085  0.0082
      *d2+     0.0000  0.0000  0.0000  0.0000
      *d1+     0.0000  0.0000  0.0000  0.0000
      *d0      0.0000  0.0000  0.0000  0.0000
      *d1-     0.0000  0.0000  0.0000  0.0000
      *d2-     0.0000  0.0000  0.0000  0.0000
      Total    0.9634  0.9733  0.9538  0.9640
 
      N-E      0.0366  0.0267  0.0462  0.0360
 
      Total electronic charge=   50.000000
 
      Total            charge=   -0.000000
--
 
 

      Expectation values of various properties for root number:  3
      -----------------------------------------------------------
 
 
++    Molecular properties:
      ---------------------
 
      Charge (e):
                      =   -0.0000
      Dipole Moment (Debye):
      Origin of the operator (Ang)=    0.0000    0.0000    0.0000
                   X=  5.0488E-01               Y=  1.6090E+00               Z= -6.2676E-01           Total=  1.7990E+00
      Quadrupole Moment (Debye*Ang):
      Origin of the operator (Ang)=    0.0000   -0.0001    0.0002
                  XX= -3.7394E+01              XY=  1.2732E+00              XZ=  3.1663E+00              YY= -3.8807E+01
                  YZ=  1.5872E+00              ZZ= -3.7575E+01
      In traceless form (Debye*Ang)
                  XX=  7.9645E-01              XY=  1.9098E+00              XZ=  4.7494E+00              YY= -1.3220E+00
                  YZ=  2.3807E+00              ZZ=  5.2552E-01
--
 
      Von Neumann Entropy (Root   4) =  0.94488
 

      Mulliken population analysis for root number:  4
      -----------------------------------------------
 
 
++    Molecular charges:
      ------------------
 
      Mulliken charges per centre and basis function type
      ---------------------------------------------------
 
                C1      C2      H3      H4      O5      O6      H7      C8      H9      H10     H11     C12   
      1s       2.0043  2.0040  1.2636  1.2674  2.0019  2.0011  1.0608  2.0041  1.2650  1.2677  1.2806  2.0040
      2s       1.3853  1.4467  0.0000  0.0000  1.8780  1.9086  0.0000  1.4522  0.0000  0.0000  0.0000  1.4482
      2px      1.0775  1.1627  0.0000  0.0000  1.2950  1.5872  0.0000  1.1582  0.0000  0.0000  0.0000  1.0877
      2pz      0.8952  1.1736  0.0000  0.0000  1.6044  1.5891  0.0000  1.1198  0.0000  0.0000  0.0000  1.1776
      2py      1.0436  1.1004  0.0000  0.0000  1.3846  1.1349  0.0000  1.1521  0.0000  0.0000  0.0000  1.1754
      *s      -0.1848 -0.4488 -0.3289 -0.3304  0.0382 -0.0866 -0.2822 -0.4577 -0.3315 -0.3280 -0.3167 -0.4561
      *px     -0.0725 -0.1801  0.0074  0.0210  0.0434 -0.0574  0.0376 -0.1795  0.0062  0.0210  0.0066 -0.1824
      *pz     -0.0800 -0.1746  0.0152  0.0054 -0.0193  0.0171  0.0226 -0.1858  0.0047  0.0048  0.0170 -0.1899
      *py     -0.0847 -0.1804  0.0083  0.0043  0.0535  0.0087  0.0181 -0.1781  0.0199  0.0050  0.0072 -0.1767
      *d2+     0.0341  0.0180  0.0000  0.0000  0.0013  0.0024  0.0000  0.0171  0.0000  0.0000  0.0000  0.0171
      *d1+     0.0289  0.0053  0.0000  0.0000  0.0058  0.0048  0.0000  0.0087  0.0000  0.0000  0.0000  0.0095
      *d0      0.0394  0.0118  0.0000  0.0000  0.0069  0.0057  0.0000  0.0150  0.0000  0.0000  0.0000  0.0119
      *d1-     0.0375  0.0132  0.0000  0.0000  0.0073  0.0049  0.0000  0.0126  0.0000  0.0000  0.0000  0.0089
      *d2-     0.0272  0.0090  0.0000  0.0000  0.0019  0.0031  0.0000  0.0059  0.0000  0.0000  0.0000  0.0095
      Total    6.1508  5.9607  0.9656  0.9677  8.3028  8.1236  0.8569  5.9446  0.9644  0.9705  0.9947  5.9447
 
      N-E     -0.1508  0.0393  0.0344  0.0323 -0.3028 -0.1236  0.1431  0.0554  0.0356  0.0295  0.0053  0.0553
 
                H13     H14     H15     H16   
      1s       1.2662  1.2680  1.2583  1.2630
      2s       0.0000  0.0000  0.0000  0.0000
      2px      0.0000  0.0000  0.0000  0.0000
      2pz      0.0000  0.0000  0.0000  0.0000
      2py      0.0000  0.0000  0.0000  0.0000
      *s      -0.3347 -0.3267 -0.3347 -0.3309
      *px      0.0055  0.0067  0.0065  0.0067
      *pz      0.0055  0.0158  0.0164  0.0162
      *py      0.0199  0.0084  0.0084  0.0081
      *d2+     0.0000  0.0000  0.0000  0.0000
      *d1+     0.0000  0.0000  0.0000  0.0000
      *d0      0.0000  0.0000  0.0000  0.0000
      *d1-     0.0000  0.0000  0.0000  0.0000
      *d2-     0.0000  0.0000  0.0000  0.0000
      Total    0.9625  0.9723  0.9549  0.9631
 
      N-E      0.0375  0.0277  0.0451  0.0369
 
      Total electronic charge=   50.000000
 
      Total            charge=   -0.000000
--
 
 

      Expectation values of various properties for root number:  4
      -----------------------------------------------------------
 
 
++    Molecular properties:
      ---------------------
 
      Charge (e):
                      =   -0.0000
      Dipole Moment (Debye):
      Origin of the operator (Ang)=    0.0000    0.0000    0.0000
                   X=  4.8656E-01               Y=  1.4251E+00               Z= -8.0263E-01           Total=  1.7064E+00
      Quadrupole Moment (Debye*Ang):
      Origin of the operator (Ang)=    0.0000   -0.0001    0.0002
                  XX= -3.7223E+01              XY=  1.6700E+00              XZ=  3.4513E+00              YY= -3.8045E+01
                  YZ=  6.4881E-01              ZZ= -3.9121E+01
      In traceless form (Debye*Ang)
                  XX=  1.3600E+00              XY=  2.5050E+00              XZ=  5.1769E+00              YY=  1.2731E-01
                  YZ=  9.7321E-01              ZZ= -1.4873E+00
--
 
 
      Input file to MOLDEN was generated!
 
 
      Input file to MOLDEN was generated!
 
 
      Input file to MOLDEN was generated!
 
 
      Input file to MOLDEN was generated!
 
 
      Input file to MOLDEN was generated!
 
      Average orbitals are written to the RASORB file
      Natural orbitals for root   1 are written to the RASORB.1 file
      Natural orbitals for root   2 are written to the RASORB.2 file
      Natural orbitals for root   3 are written to the RASORB.3 file
      Natural orbitals for root   4 are written to the RASORB.4 file
      Spin density orbitals for root   1 are written to the SPDORB.1 file
      Spin density orbitals for root   2 are written to the SPDORB.2 file
      Spin density orbitals for root   3 are written to the SPDORB.3 file
      Spin density orbitals for root   4 are written to the SPDORB.4 file
 
 ###############################################################################
 ###############################################################################
 ###                                                                         ###
 ###                                                                         ###
 ###    WARNING: RunFile label BirthCertificate                              ###
 ###    was used       53 times                                              ###
 ###                                                                         ###
 ###                                                                         ###
 ###############################################################################
 ###############################################################################
--- Stop Module: rasscf at Mon Jul  6 14:27:16 2026 /rc=_RC_ALL_IS_WELL_ ---
*** files: tbhp_sa4_casscf_sp.rasscf.molden tbhp_sa4_casscf_sp.rasscf.molden.1 tbhp_sa4_casscf_sp.rasscf.molden.2 tbhp_sa4_casscf_sp.rasscf.molden.3
           tbhp_sa4_casscf_sp.rasscf.molden.4 tbhp_sa4_casscf_sp.RasOrb tbhp_sa4_casscf_sp.RasOrb.1 tbhp_sa4_casscf_sp.RasOrb.2 tbhp_sa4_casscf_sp.RasOrb.3
           tbhp_sa4_casscf_sp.RasOrb.4 tbhp_sa4_casscf_sp.rasscf.h5 tbhp_sa4_casscf_sp.SpdOrb.1 tbhp_sa4_casscf_sp.SpdOrb.2 tbhp_sa4_casscf_sp.SpdOrb.3 tbhp_sa4_casscf_sp.SpdOrb.4
           xmldump
    saved to directory /projects/academic/cyberwksp21/Students/hclifford/openmolcas/active_space
--- Module rasscf spent 1 minute 19 seconds ---

.##################.
.# Happy landing! #.
.##################.

    Timing: Wall=128.08 User=92.62 System=26.59
