   This run of MOLCAS is using the pymolcas driver

                             OPE
                             OPE          NMOL  CASOP  ENMOLC A   SO
                 OPE        NMOLC        AS  OP EN  MO LC     AS  OP
                OPENM       OL CA        SO  PE NM  OL CA     SOP EN
                OP EN      MO   LC       AS  OP ENMOL  CASO   PENMOL
                OP  EN     MO   LC       AS  OP EN     MO     LC ASO
               OP   E  NMOL  C  AS       OP  EN MO     LC     AS  OP
               OP  E   NMO   LC AS        OPEN  MO     LCASOP EN   M
               O  PEN   MO  LCA  SO
            OPE   NMO   L   CAS    OP
        OPENMOL  CASOP     ENMOL   CASOPE
     OPENMOLCA   SOPENMOLCASOPEN   MOLCASOPE
    OPENMOLCAS   OP           EN   MOL    CAS
    OPENMOLCAS       OP  ENM        O     LCA
    OPENMOLCAS    OPEN  MOLCASO     P  E  NMO
    OPENMOLCAS     OP               E  N  MOL
    OPENMOLCA   SO           PENM   O  L  CAS    OPEN    MO    LCAS
    OPENMOLCA   SOP           ENM   O  L  CAS   OP  EN  MOLC  AS   O
    OPENMOLCA   SOPE           NM      O  LCA   S      OP  EN MO
    OPENMOLC                AS         O  PEN   M      OL  CA  SOPE
    OPENMO        LCASOPE  NMOL        C  ASO   P      ENMOLC     AS
    OPE     NMO      LCA  SO     P     E   NM   OL  CA SO  PE N   MO
          OPENMOLCA            SOPE   NMO        LCAS  O    P  ENMO
     OPENMOLCASOPENMOLCASOPENMOLCASOPENMOLCA
        OPENMOLCASOPENMOLCASOPENMOLCASOPE
            OPENMOLCASOPENMOLCASOPENM
               OPENMOLCASOPENMOLCA        version: v23.10 ?
                   OPENMOLCASO
                       OPE                tag:

 OpenMolcas is free software; you can redistribute it and/or modify it
 under the terms of the GNU Lesser General Public License version 2.1.
 OpenMolcas is distributed in the hope that it will be useful, but it
 is provided "as is" and without any express or implied warranties.
 For more details see the full text of the license in the file
 LICENSE or in <http://www.gnu.org/licenses/>.

                 Copyright (C) The OpenMolcas Authors
           For the author list and the recommended citation,
                   consult the file CONTRIBUTORS.md

           *************************************************
           * pymolcas version py2.25                       *
           *   build 2b27fa14244bdc32cb1957e6230cd793      *
           *   (after the EMIL interpreter by V. Veryazov) *
           *************************************************

configuration info
------------------
Host name: cpn-h22-29.core.ccr.buffalo.edu (Linux)
C Compiler ID: Intel
C flags: -O2 -xCore-AVX512 -ftz -fp-speculation=safe -fp-model source -std=gnu99 -gcc-sys -qopenmp
Fortran Compiler ID: Intel
Fortran flags: -O2 -xCore-AVX512 -ftz -fp-speculation=safe -fp-model source  -fpp -i8 -heap-arrays -qopenmp
Definitions: _MOLCAS_;_I8_;_LINUX_;_MOLCAS_MPP_;_SCALAPACK_;_GA_
Parallel: ON (GA=ON)


   -----------------------------------------------------------------------------------------------------------------------------------------------------
  |
  |           Project: relaxed_scan_tbhp_casscf
  |    Submitted from: /vscratch/grp-cyberwksp21/hclifford/openmolcas/PES/runs_relaxed_s1/R_1p80
  |      Scratch area: /vscratch/grp-cyberwksp21/hclifford/openmolcas/PES/runs_relaxed_s1/R_1p80/molcas_scratch_R_1p80/relaxed_scan_tbhp_casscf
  |   Save outputs to: /vscratch/grp-cyberwksp21/hclifford/openmolcas/PES/runs_relaxed_s1/R_1p80
  |            Molcas: /cvmfs/soft.ccr.buffalo.edu/versions/2023.01/easybuild/software/avx512/MPI/intel/2022.0.1/impi/2021.5.0/openmolcas/23.10
  |
  | Scratch area is empty
  |
  |    MOLCAS_DRIVER = /cvmfs/soft.ccr.buffalo.edu/versions/2023.01/easybuild/software/avx512/MPI/intel/2022.0.1/impi/2021.5.0/openmolcas/23.10/pymolcas
  |    MOLCAS_MOLDEN = ON
  |    MOLCAS_NPROCS = 1
  |     MOLCAS_PRINT = NORMAL
  |    MOLCAS_SOURCE = /cvmfs/soft.ccr.buffalo.edu/versions/2023.01/easybuild/software/avx512/MPI/intel/2022.0.1/impi/2021.5.0/openmolcas/23.10
  | MOLCAS_STRUCTURE = 0
  |
   -----------------------------------------------------------------------------------------------------------------------------------------------------

++ ---------   Input file   ---------

&GATEWAY
  Coord = tbhp.xyz
  Basis = cc-pVDZ
  Group = NoSymm
  Constraints
    rOO = Bond O1 O2
  Values
    rOO = 1.80 Angstrom
  End of Constraints

>>> DO WHILE

  &SEWARD

  &RASSCF
    Spin = 1
    NActEl = 6 0 0
    Inactive = 22
    Ras2 = 4
    CiRoot = 4 4 1
    RlxRoot = 2
    LumOrb
    LevShift = 1.0

  &ALASKA

  &SLAPAF

>>> END DO

-- ----------------------------------

--- Start Module: gateway at Wed Jul  8 12:04:20 2026 ---
 
()()()()()()()()()()()()()()()()()()()()()()()()()()()()()()()()()()()()()()()()()()()()()()()()()()

                                              &GATEWAY

                       only a single process is used, running in SERIAL mode
                        available to each process: 12 GB of memory, 1 thread
                                            pid: 229800
()()()()()()()()()()()()()()()()()()()()()()()()()()()()()()()()()()()()()()()()()()()()()()()()()()
 
 
++    Symmetry information:
      ---------------------
 
                    Character Table for C1 
 
                             E  
                    a        1  x, y, xy, Rz, z, xz, Ry, yz, Rx, I
--
 
 
++    Basis set information:
      ----------------------
 
 
      Basis set label: C.CC-PVDZ.........
 
      Electronic valence basis set:
      ------------------
      Associated Effective Charge   6.000000 au
      Associated Actual Charge      6.000000 au
      Nuclear Model: Point charge
 
      Shell  nPrim  nBasis  Cartesian Spherical Contaminant
         s       9       3        X                  
         p       4       2        X                  
         d       1       1                 X         
 
 
      Basis set label: H.CC-PVDZ.........
 
      Electronic valence basis set:
      ------------------
      Associated Effective Charge   1.000000 au
      Associated Actual Charge      1.000000 au
      Nuclear Model: Point charge
 
      Shell  nPrim  nBasis  Cartesian Spherical Contaminant
         s       4       2        X                  
         p       1       1        X                  
 
 
      Basis set label: O.CC-PVDZ.........
 
      Electronic valence basis set:
      ------------------
      Associated Effective Charge   8.000000 au
      Associated Actual Charge      8.000000 au
      Nuclear Model: Point charge
 
      Shell  nPrim  nBasis  Cartesian Spherical Contaminant
         s       9       3        X                  
         p       4       2        X                  
         d       1       1                 X         
 
 
      Basis set label: H.CC-PVDZ.........
 
      Electronic valence basis set:
      ------------------
      Associated Effective Charge   1.000000 au
      Associated Actual Charge      1.000000 au
      Nuclear Model: Point charge
 
      Shell  nPrim  nBasis  Cartesian Spherical Contaminant
         s       4       2        X                  
         p       1       1        X                  
 
 
      Basis set label: C.CC-PVDZ.........
 
      Electronic valence basis set:
      ------------------
      Associated Effective Charge   6.000000 au
      Associated Actual Charge      6.000000 au
      Nuclear Model: Point charge
 
      Shell  nPrim  nBasis  Cartesian Spherical Contaminant
         s       9       3        X                  
         p       4       2        X                  
         d       1       1                 X         
 
 
      Basis set label: H.CC-PVDZ.........
 
      Electronic valence basis set:
      ------------------
      Associated Effective Charge   1.000000 au
      Associated Actual Charge      1.000000 au
      Nuclear Model: Point charge
 
      Shell  nPrim  nBasis  Cartesian Spherical Contaminant
         s       4       2        X                  
         p       1       1        X                  
 
 
      Basis set label: C.CC-PVDZ.........
 
      Electronic valence basis set:
      ------------------
      Associated Effective Charge   6.000000 au
      Associated Actual Charge      6.000000 au
      Nuclear Model: Point charge
 
      Shell  nPrim  nBasis  Cartesian Spherical Contaminant
         s       9       3        X                  
         p       4       2        X                  
         d       1       1                 X         
 
 
      Basis set label: H.CC-PVDZ.........
 
      Electronic valence basis set:
      ------------------
      Associated Effective Charge   1.000000 au
      Associated Actual Charge      1.000000 au
      Nuclear Model: Point charge
 
      Shell  nPrim  nBasis  Cartesian Spherical Contaminant
         s       4       2        X                  
         p       1       1        X                  
--
 
 
++    Molecular structure info:
      -------------------------
 
                    ************************************************ 
                    **** Cartesian Coordinates / Bohr, Angstrom **** 
                    ************************************************ 
 
     Center  Label                x              y              z                     x              y              z
        1      C1              -0.021542       0.141236      -0.863799             -0.011400       0.074739      -0.457103
        2      C2               0.831168       2.894138      -0.976131              0.439835       1.531512      -0.516547
        3      H3               0.063091       3.973818       0.597379              0.033386       2.102854       0.316120
        4      H4               2.889618       3.006368      -0.897928              1.529120       1.590901      -0.475163
        5      O1               1.048443      -1.087412       1.282909              0.554812      -0.575434       0.678886
        6      O2              -0.179421       0.472953       4.044767             -0.094945       0.250276       2.140399
        7      H7               1.263745      -0.351457       4.767996              0.668745      -0.185983       2.523115
        8      C8               1.105388      -1.375518      -3.048072              0.584946      -0.727893      -1.612970
        9      H9               0.556259      -3.358152      -2.914267              0.294360      -1.777058      -1.542164
       10      H10              3.164481      -1.268188      -3.022044              1.674571      -0.671096      -1.599197
       11      H11              0.434286      -0.629140      -4.848329              0.229814      -0.332927      -2.565625
       12      C12             -2.895285      -0.095819      -0.822797             -1.532119      -0.050705      -0.435405
       13      H13             -3.445010      -2.076354      -0.655641             -1.823021      -1.098759      -0.346950
       14      H14             -3.697104       0.662660      -2.566952             -1.956423       0.350665      -1.358373
       15      H15             -3.702320       0.934206       0.764700             -1.959183       0.494360       0.404662
       16      H16              0.198038       3.766686      -2.736247              0.104797       1.993244      -1.447959
 
                    ************************************************* 
                    **** InterNuclear Distances / Bohr, Angstrom **** 
                    ************************************************* 
 
     Atom centers         Bohr        Angstrom
    7 H7        6 O2      1.812578        0.959175
    3 H3        2 C2      2.057082        1.088561
   15 H15      12 C12     2.057280        1.088666
   11 H11       8 C8      2.061161        1.090720
    9 H9        8 C8      2.061622        1.090963
   10 H10       8 C8      2.062053        1.091191
   13 H13      12 C12     2.062197        1.091268
    4 H4        2 C2      2.062990        1.091687
   14 H14      12 C12     2.064025        1.092235
   16 H16       2 C2    
    5 O1        1 C1      2.694958        1.426110
   12 C12       1 C1      2.883795        1.526039
    2 C2        1 C1      2.884130        1.526216
    8 C8        1 C1      2.888177        1.528357
   15 H15      13 H13     3.338719        1.766774
    4 H4        3 H3      3.340833        1.767893
   15 H15      14 H14     3.342704        1.768883
   16 H16       3 H3      3.342780        1.768923
   10 H10       9 H9      3.344008        1.769573
   11 H11      10 H10     3.346292        1.770781
   16 H16       4 H4      3.346954        1.771132
   11 H11       9 H9      3.347086        1.771202
   14 H14      13 H13     3.349457        1.772456
    6 O2        5 O1      3.401507        1.800000
    7 H7        5 O1      3.568447        1.888341
   11 H11       1 C1      4.083839        2.161075
   13 H13       1 C1      4.084258        2.161296
   14 H14       1 C1      4.084405        2.161374
    4 H4        1 C1      4.084728        2.161545
   16 H16       1 C1      4.086339        2.162397
    9 H9        1 C1      4.096827        2.167948
   10 H10       1 C1      4.098200        2.168674
   15 H15       1 C1      4.102308        2.170848
    3 H3        1 C1      4.102547        2.170974
    8 C8        5 O1      4.340927        2.297119
   12 C12       5 O1      4.579328        2.423276
    5 O1        2 C2      4.582926        2.425180
   12 C12       8 C8      4.753406        2.515394
    8 C8        2 C2      4.753746        2.515574
   13 H13       9 H9      4.770174        2.524267
   12 C12       2 C2      4.780148        2.529545
   10 H10       4 H4      4.781134        2.530067
    9 H9        5 O1      4.797374        2.538661
   10 H10       5 O1      4.800304        2.540212
   15 H15       6 O2      4.835537        2.558856
   15 H15       3 H3      4.842061        2.562308
   16 H16      11 H11     4.882622        2.583772
   14 H14      11 H11     4.893037        2.589284
    6 O2        3 H3      4.919283        2.603173
    6 O2        1 C1      4.922295        2.604766
   16 H16      14 H14     4.983550        2.637181
    5 O1        4 H4      4.990492        2.640855
   13 H13       5 O1      4.992705        2.642026
   13 H13       8 C8      5.188547        2.745661
   15 H15       5 O1      5.188952        2.745875
   12 C12       9 H9      5.189434        2.746130
   10 H10       2 C2      5.191827        2.747397
    8 C8        4 H4      5.196876        2.750068
    5 O1        3 H3      5.201626        2.752582
   12 C12       3 H3      5.227890        2.766480
   16 H16       8 C8      5.230945        2.768097
   15 H15       2 C2      5.236825        2.771209
   14 H14       8 C8      5.239235        2.772484
   11 H11       2 C2      5.250231        2.778302
   12 C12      11 H11     5.251227        2.778830
   14 H14       2 C2      5.292963        2.800915
   16 H16      12 C12     5.305553        2.807577
   12 C12       6 O2      5.602910        2.964932
    6 O2        2 C2      5.665055        2.997818
--
 
 
            Nuclear Potential Energy            263.29254364 au
 
--- Stop Module: gateway at Wed Jul  8 12:04:21 2026 /rc=_RC_ALL_IS_WELL_ ---
*** files: xmldump
    saved to directory /vscratch/grp-cyberwksp21/hclifford/openmolcas/PES/runs_relaxed_s1/R_1p80

--- Start Module: seward at Wed Jul  8 12:04:21 2026 ---
 
()()()()()()()()()()()()()()()()()()()()()()()()()()()()()()()()()()()()()()()()()()()()()()()()()()

                                              &SEWARD

                       only a single process is used, running in SERIAL mode
                        available to each process: 12 GB of memory, 1 thread
                                            pid: 229804
()()()()()()()()()()()()()()()()()()()()()()()()()()()()()()()()()()()()()()()()()()()()()()()()()()
 
               SEWARD will generate:
                  Multipole Moment integrals up to order  2
                  Kinetic Energy integrals
                  Nuclear Attraction integrals (point charge)
                  One-Electron Hamiltonian integrals
                  Velocity integrals
                  Orbital angular momentum around (-0.0017  0.1514  0.0565 )
                  Velocity quadrupole around (-0.0017  0.1514  0.0565 )
                  Two-Electron Repulsion integrals
 
                   Integrals are discarded if absolute value <: 0.10E-13
                   Integral cutoff threshold is set to       <: 0.10E-15
 
            Nuclear Potential Energy            263.29254364 au
 
 
      Basis set specifications :
      Symmetry species         a  
      Basis functions          134
 
 
      Input file to MOLDEN was generated!
 
--- Stop Module: seward at Wed Jul  8 12:04:39 2026 /rc=_RC_ALL_IS_WELL_ ---
*** files: relaxed_scan_tbhp_casscf.GssOrb relaxed_scan_tbhp_casscf.guessorb.h5 relaxed_scan_tbhp_casscf.guessorb.molden xmldump
    saved to directory /vscratch/grp-cyberwksp21/hclifford/openmolcas/PES/runs_relaxed_s1/R_1p80
--- Module seward spent 18 seconds ---

*** symbolic link created: INPORB -> relaxed_scan_tbhp_casscf.GssOrb
--- Start Module: rasscf at Wed Jul  8 12:04:39 2026 ---
 
()()()()()()()()()()()()()()()()()()()()()()()()()()()()()()()()()()()()()()()()()()()()()()()()()()

                                              &RASSCF

                       only a single process is used, running in SERIAL mode
                        available to each process: 12 GB of memory, 1 thread
                                            pid: 229808
()()()()()()()()()()()()()()()()()()()()()()()()()()()()()()()()()()()()()()()()()()()()()()()()()()
 
 
      Header of the ONEINT file:
      --------------------------
      
      Integrals generated by Gateway/Seward, Wed Jul  8 12:04:21 2026
 
 
      OrdInt status: non-squared
 
 
      Cartesian coordinates in Angstrom:
      -----------------------------------------------------
      No.  Label        X            Y            Z        
      -----------------------------------------------------
       1   C1        -0.01139969   0.07473874  -0.45710275
       2   C2         0.43983524   1.53151203  -0.51654652
       3   H3         0.03338615   2.10285377   0.31611957
       4   H4         1.52912019   1.59090129  -0.47516326
       5   O1         0.55481218  -0.57543356   0.67888606
       6   O2        -0.09494538   0.25027588   2.14039864
       7   H7         0.66874488  -0.18598325   2.52311476
       8   C8         0.58494633  -0.72789299  -1.61297035
       9   H9         0.29435984  -1.77705775  -1.54216375
      10   H10        1.67457144  -0.67109611  -1.59919702
      11   H11        0.22981418  -0.33292659  -2.56562545
      12   C12       -1.53211881  -0.05070542  -0.43540531
      13   H13       -1.82302072  -1.09875916  -0.34695030
      14   H14       -1.95642321   0.35066475  -1.35837253
      15   H15       -1.95918318   0.49436032   0.40466163
      16   H16        0.10479738   1.99324446  -1.44795932
      -----------------------------------------------------
      Nuclear repulsion energy =  263.29254364
 
++    Wave function specifications:
      -----------------------------
 
      Number of closed shell electrons          44
      Number of electrons in active shells       6
      Max number of holes in RAS1 space          0
      Max nr of electrons in RAS3 space          0
      Number of inactive orbitals               22
      Number of active orbitals                  4
      Number of secondary orbitals             108
      Spin quantum number                      0.0
      State symmetry                             1
--
 
++    Orbital specifications:
      -----------------------
 
      Symmetry species                           1
                                                 a
      Frozen orbitals                            0
      Inactive orbitals                         22
      Active orbitals                            4
      RAS1 orbitals                              0
      RAS2 orbitals                              4
      RAS3 orbitals                              0
      Secondary orbitals                       108
      Deleted orbitals                           0
      Number of basis functions                134
--
 
++    CI expansion specifications:
      ----------------------------
 
      Number of CSFs                            10
      Number of determinants                    10
      Number of root(s) required                 4
      Root chosen for geometry opt.              2
      CI roots used                              1     2     3     4
      weights                                0.250 0.250 0.250 0.250
      highest root included in the CI            4
      max. size of the explicit Hamiltonian     10
--
 
++    Optimization specifications:
      ----------------------------
 
      RASSCF algorithm: Conventional
      Maximum number of macro iterations       200
      Maximum number of SX iterations          100
      Threshold for RASSCF energy            0.100E-07
      Threshold for max MO rotation          0.100E+00
      Threshold for max BLB element          0.100E-03
      Level shift parameter                  0.100E+01
      Make Quasi-Newton update
--
 
      The MO-coefficients are taken from the file:
      INPORB                                                                                                                                                                                                                                                          
      Title:Guess orbitals                                                                 
 
      Total molecular charge    0.00
 
      ************************************************************************************************************************
      *                                                                                                                      *
      *                                            Wave function control section                                             *
      *                                                                                                                      *
      ************************************************************************************************************************
 
 
                                         RASSCF iterations: Energy and convergence statistics
                                         ----------------------------------------------------
 
      Iter CI   SX   CI       RASSCF       Energy    max ROT     max BLB   max BLB  Level Ln srch  Step   QN   Walltime
          iter iter root      energy       change     param      element    value   shift minimum  type update hh:mm:ss
 Nr of preliminary CI iterations:   1
        1   1  100    0  -305.99094964    0.00E+00  -0.85E-01   23  27 1  0.28E+00*  0.91   0.00    SX    NO    0:00:03
        2   1  100    0  -306.57148689   -0.58E+00* -0.72E-01   10  39 1  0.11E+00*  0.84   0.00    SX    NO    0:00:02
        3   1   32    0  -306.67659886   -0.11E+00* -0.59E-01    8  27 1  0.50E-01*  0.83   0.00    SX    NO    0:00:01
        4   1   16    0  -306.70356336   -0.27E-01* -0.54E-01    8  27 1  0.26E-01*  0.82   0.00    SX    NO    0:00:01
        5   1   11    0  -306.71397648   -0.10E-01* -0.64E-01    8  27 1  0.15E-01*  0.82   2.50    LS   YES    0:00:01
        6   1   12    0  -306.72110401   -0.71E-02* -0.78E-01   14  26 1  0.11E-01*  0.82   1.76    QN   YES    0:00:01
        7   1   11    0  -306.72565205   -0.45E-02*  0.10E+00*  23  27 1 -0.11E-01*  0.82   2.12    QN   YES    0:00:01
        8   1   11    0  -306.72986756   -0.42E-02*  0.83E-01   23  27 1 -0.11E-01*  0.82   1.75    QN   YES    0:00:01
        9   1   11    0  -306.73241062   -0.25E-02* -0.40E-01   10  39 1 -0.86E-02*  0.81   1.55    QN   YES    0:00:01
       10   1   11    0  -306.73368213   -0.13E-02*  0.16E-01   10  39 1 -0.40E-02*  0.81   1.57    QN   YES    0:00:01
       11   1   10    0  -306.73428574   -0.60E-03*  0.17E-01   20  24 1 -0.22E-02*  0.81   1.56    QN   YES    0:00:01
       12   1   10    0  -306.73461297   -0.33E-03*  0.28E-01    8  27 1  0.23E-02*  0.81   2.08    QN   YES    0:00:01
       13   1   10    0  -306.73501044   -0.40E-03*  0.41E-01   10  39 1  0.33E-02*  0.81   2.09    QN   YES    0:00:01
       14   1   10    0  -306.73547243   -0.46E-03* -0.43E-01   10  39 1  0.34E-02*  0.81   1.81    QN   YES    0:00:01
       15   1   11    0  -306.73589081   -0.42E-03*  0.32E-01   16  27 1 -0.33E-02*  0.81   1.63    QN   YES    0:00:01
       16   1   11    0  -306.73624214   -0.35E-03*  0.20E-01   16  27 1 -0.27E-02*  0.81   1.69    QN   YES    0:00:01
       17   1   10    0  -306.73654647   -0.30E-03* -0.14E-01   14  24 1  0.18E-02*  0.81   1.67    QN   YES    0:00:01
       18   1   10    0  -306.73679332   -0.25E-03* -0.20E-01   23  27 1 -0.23E-02*  0.81   1.87    QN   YES    0:00:01
       19   1   10    0  -306.73708177   -0.29E-03* -0.31E-01   12  38 1 -0.25E-02*  0.81   2.00    QN   YES    0:00:01
       20   1   11    0  -306.73748518   -0.40E-03* -0.56E-01   14  26 1 -0.33E-02*  0.81   2.30    QN   YES    0:00:01
       21   1   11    0  -306.73820458   -0.72E-03* -0.14E+00*  14  26 1 -0.53E-02*  0.81   2.50    QN   YES    0:00:01
       22   1   30    0  -306.74032044   -0.21E-02* -0.99E-01   14  26 1 -0.11E-01*  0.83   2.50    LS   YES    0:00:01
       23   1   29    0  -306.73977846    0.54E-03* -0.28E-01   23  28 1 -0.22E-01*  0.85   0.38    QN   YES    0:00:01
       24   1   20    0  -306.74382013   -0.40E-02* -0.20E+00*  26 131 1 -0.22E-01*  0.86   2.04    QN   YES    0:00:01
       25   1   28    0  -306.74807467   -0.43E-02* -0.82E-01   25 111 1 -0.37E-01*  0.83   0.60    QN   YES    0:00:01
       26   1   34    0  -306.75931762   -0.11E-01* -0.34E-01   25 111 1 -0.22E-01*  0.85   1.55    QN   YES    0:00:01
       27   1   18    0  -306.76530092   -0.60E-02* -0.52E-01   20 108 1 -0.18E-01*  0.86   2.10    QN   YES    0:00:01
       28   1   13    0  -306.77411496   -0.88E-02* -0.68E-01   20 108 1 -0.21E-01*  0.86   1.89    QN   YES    0:00:01
       29   1   12    0  -306.78124088   -0.71E-02*  0.69E-01   20 108 1 -0.19E-01*  0.85   1.77    QN   YES    0:00:01
       30   1   10    0  -306.78579125   -0.46E-02*  0.68E-01    8  28 1  0.11E-01*  0.84   2.50    LS   YES    0:00:01
       31   1   16    0  -306.78914457   -0.34E-02*  0.18E+00*  25 111 1  0.17E-01*  0.84   2.50    QN   YES    0:00:01
       32   1   36    0  -306.79225176   -0.31E-02*  0.74E-01   25 111 1  0.39E-01*  0.82   0.70    QN   YES    0:00:01
       33   1   26    0  -306.79479193   -0.25E-02*  0.38E-01   25 111 1  0.32E-01*  0.81   0.93    QN   YES    0:00:01
       34   1   46    0  -306.79539923   -0.61E-03*  0.59E-01   25 111 1  0.30E-01*  0.81   0.59    SX   YES    0:00:01
       35   1   46    0  -306.81448226   -0.19E-01*  0.22E+00*  20  26 1  0.23E-01*  0.80   2.50    QN   YES    0:00:01
       36   1   61    0  -306.85593911   -0.41E-01* -0.77E-01   25 111 1 -0.32E-01*  0.80   1.14    QN   YES    0:00:01
       37   1   45    0  -306.86355219   -0.76E-02* -0.56E-01   25 111 1 -0.31E-01*  0.80   1.42    QN   YES    0:00:01
       38   1   15    0  -306.86978948   -0.62E-02*  0.30E-01   25 111 1 -0.20E-01*  0.81   1.31    QN   YES    0:00:01
       39   1    9    0  -306.87361669   -0.38E-02*  0.25E-01    8  28 1 -0.16E-01*  0.82   1.07    QN   YES    0:00:01
       40   1    9    0  -306.87579022   -0.22E-02*  0.21E-01    8  28 1 -0.12E-01*  0.83   1.83    QN   YES    0:00:01
       41   1    9    0  -306.87775092   -0.20E-02*  0.25E-01   19 108 1  0.88E-02*  0.82   1.71    QN   YES    0:00:01
       42   1    9    0  -306.87906480   -0.13E-02*  0.19E-01   19 108 1  0.64E-02*  0.82   1.70    QN   YES    0:00:01
       43   1    9    0  -306.87985355   -0.79E-03*  0.97E-02   23  27 1 -0.40E-02*  0.82   1.49    QN   YES    0:00:01
       44   1    9    0  -306.88013890   -0.29E-03* -0.37E-02   23  27 1 -0.26E-02*  0.82   1.28    QN   YES    0:00:01
       45   1    8    0  -306.88020345   -0.65E-04* -0.16E-02   23  27 1 -0.15E-02*  0.82   1.17    QN   YES    0:00:01
       46   1    8    0  -306.88021715   -0.14E-04* -0.99E-03   23  27 1 -0.40E-03*  0.82   1.21    QN   YES    0:00:01
       47   1    7    0  -306.88022044   -0.33E-05*  0.47E-03   23 114 1 -0.17E-03*  0.82   1.41    QN   YES    0:00:01
       48   1    7    0  -306.88022135   -0.91E-06*  0.26E-03   23  28 1  0.81E-04   0.82   1.36    QN   YES    0:00:01
       49   1    6    0  -306.88022162   -0.28E-06*  0.24E-03   16  26 1  0.52E-04   0.82   1.60    QN   YES    0:00:01
       50   1    6    0  -306.88022177   -0.14E-06* -0.21E-03   23  27 1  0.37E-04   0.82   1.44    QN   YES    0:00:01
       51   1    6    0  -306.88022183   -0.56E-07* -0.14E-03   26  28 1 -0.28E-04   0.82   1.54    QN   YES    0:00:01
       52   1    6    0  -306.88022185   -0.24E-07* -0.48E-04   26  28 1 -0.19E-04   0.82   1.43    QN   YES    0:00:01
       53   1    5    0  -306.88022186   -0.76E-08   0.25E-04   26  27 1 -0.99E-05   0.82   1.45    QN   YES    0:00:01
      Convergence after 53 iterations
       54   1    5    0  -306.88022186   -0.23E-08   0.25E-04   14  27 1 -0.53E-05   0.82   1.45    QN   YES    0:00:01
 
      ************************************************************************************************************************
                                                      Wave function printout:
                       occupation of active orbitals, and spin coupling of open shells (u,d: Spin up or down)
      ************************************************************************************************************************
 
      Note: transformation to natural orbitals
      has been made, which may change the order of the CSFs.
 
      printout of CI-coefficients larger than  0.05 for root  1
      energy=    -306.964407
      conf/sym  1111     Coeff  Weight
             1  2220  -0.92804 0.86126
            10  0222   0.36966 0.13665
 
      printout of CI-coefficients larger than  0.05 for root  2
      energy=    -306.885699
      conf/sym  1111     Coeff  Weight
             2  22ud  -0.89096 0.79380
             9  ud22   0.45205 0.20435
 
      printout of CI-coefficients larger than  0.05 for root  3
      energy=    -306.854242
      conf/sym  1111     Coeff  Weight
             4  2u2d   0.82382 0.67867
             7  u2d2  -0.56610 0.32047
 
      printout of CI-coefficients larger than  0.05 for root  4
      energy=    -306.816540
      conf/sym  1111     Coeff  Weight
             3  2202  -0.80083 0.64134
             8  2022   0.59749 0.35699
 
      Natural orbitals and occupation numbers for root  1
      sym 1:   1.726474   1.999981   1.996842   0.276703
 
      Natural orbitals and occupation numbers for root  2
      sym 1:   1.800589   1.791600   1.201741   1.206069
 
      Natural orbitals and occupation numbers for root  3
      sym 1:   1.683527   1.320954   1.678380   1.317139
 
      Natural orbitals and occupation numbers for root  4
      sym 1:   1.999322   1.285660   0.716262   1.998756
 
      ************************************************************************************************************************
      *                                                                                                                      *
      *                                                    Final results                                                     *
      *                                                                                                                      *
      ************************************************************************************************************************
 
 
++    Wave function specifications:
      -----------------------------
 
      Number of closed shell electrons          44
      Number of electrons in active shells       6
      Max number of holes in RAS1 space          0
      Max nr of electrons in RAS3 space          0
      Number of inactive orbitals               22
      Number of active orbitals                  4
      Number of secondary orbitals             108
      Spin quantum number                      0.0
      State symmetry                             1
--
 
++    Orbital specifications:
      -----------------------
 
      Symmetry species                           1
                                                 a
      Frozen orbitals                            0
      Inactive orbitals                         22
      Active orbitals                            4
      RAS1 orbitals                              0
      RAS2 orbitals                              4
      RAS3 orbitals                              0
      Secondary orbitals                       108
      Deleted orbitals                           0
      Number of basis functions                134
--
 
++    CI expansion specifications:
      ----------------------------
 
      Number of CSFs                            10
      Number of determinants                    10
      Number of root(s) required                 4
      CI roots used                              1     2     3     4
      weights                                0.250 0.250 0.250 0.250
      highest root included in the CI            4
      Root passed to geometry opt.               2
--
 
++    Final optimization conditions:
      ------------------------------
 
      Average CI energy                            -306.88022186
      RASSCF energy for state  2                   -306.88569894
      Super-CI energy                                -0.00000000
      RASSCF energy change                           -0.00000000
      Max change in MO coefficients               0.259E-04
      Max non-diagonal density matrix element     0.251E-04
      Maximum BLB matrix element                 -0.529E-05
      (orbital pair  14,  27 in symmetry   1)
      Norm of electronic gradient            0.336E-01
--
 
 
      Final state energy(ies):
      ------------------------
 
::    RASSCF root number  1 Total energy:   -306.96440697
::    RASSCF root number  2 Total energy:   -306.88569894
::    RASSCF root number  3 Total energy:   -306.85424171
::    RASSCF root number  4 Total energy:   -306.81653981
 
++    Molecular orbitals:
      -------------------
 
      Pseudonatural active orbitals and approximate occupation numbers
 
 
 
 
      Molecular orbitals for symmetry species 1: a  
 
 
      Orbital                 1         2         3         4         5         6         7         8         9        10
      Energy           -20.5786  -20.5727  -11.2844  -11.2212  -11.2190  -11.2187   -1.3526   -1.2557   -1.0515   -0.9405
      Occ. No.           2.0000    2.0000    2.0000    2.0000    2.0000    2.0000    2.0000    2.0000    2.0000    2.0000
 
     1 C1     1s        -0.0000   -0.0002   -1.0021    0.0048   -0.0045    0.0048   -0.0071   -0.0084   -0.0170   -0.0002
     2 C1     2s        -0.0001   -0.0008   -0.0105   -0.0003    0.0004   -0.0004    0.2587    0.2577    0.4058    0.0028
     3 C1     *s        -0.0002    0.0045    0.0172   -0.0006    0.0003   -0.0006   -0.1057   -0.0681    0.0069    0.0010
     4 C1     2px        0.0000    0.0002   -0.0004   -0.0001    0.0001    0.0003    0.0450    0.0441   -0.0628   -0.1551
     5 C1     *px       -0.0002    0.0012   -0.0002   -0.0005    0.0004    0.0007   -0.0208   -0.0193    0.0061    0.0049
     6 C1     2py       -0.0000   -0.0002    0.0004   -0.0003   -0.0002    0.0000   -0.0514   -0.0508    0.0737   -0.1975
     7 C1     *py        0.0004   -0.0015    0.0003   -0.0006   -0.0004    0.0004    0.0219    0.0220   -0.0050    0.0084
     8 C1     2pz       -0.0001    0.0004   -0.0008    0.0000   -0.0003    0.0000    0.0963    0.0687   -0.1341   -0.0331
     9 C1     *pz        0.0007    0.0017   -0.0000   -0.0005   -0.0004   -0.0005   -0.0494   -0.0274    0.0189    0.0010
    10 C1     *d2-      -0.0000    0.0000    0.0000    0.0001    0.0001    0.0000   -0.0068   -0.0056    0.0072   -0.0090
    11 C1     *d1-      -0.0001   -0.0000    0.0000   -0.0000   -0.0001    0.0000   -0.0122   -0.0108    0.0136    0.0046
    12 C1     *d0       -0.0001    0.0001   -0.0000   -0.0001   -0.0000   -0.0001    0.0077    0.0065   -0.0127    0.0043
    13 C1     *d1+       0.0001    0.0000   -0.0000   -0.0001    0.0001   -0.0000    0.0106    0.0093   -0.0121   -0.0041
    14 C1     *d2+       0.0000    0.0000    0.0000   -0.0001    0.0000    0.0001   -0.0009   -0.0009    0.0008    0.0230
    15 C2     1s         0.0000   -0.0000   -0.0047   -1.0019    0.0037   -0.0034   -0.0016   -0.0013   -0.0117    0.0184
    16 C2     2s         0.0000   -0.0002    0.0003   -0.0104   -0.0006    0.0006    0.0609    0.0711    0.3686   -0.5989
    17 C2     *s        -0.0004   -0.0000   -0.0038    0.0123    0.0013   -0.0014   -0.0207   -0.0316   -0.1437    0.1842
    18 C2     2px        0.0000    0.0000    0.0001   -0.0001   -0.0001   -0.0001   -0.0065   -0.0053   -0.0322   -0.0155
    19 C2     *px        0.0001   -0.0003    0.0004   -0.0003    0.0003    0.0008    0.0023    0.0023    0.0177    0.0046
    20 C2     2py        0.0000    0.0002    0.0003   -0.0002    0.0001   -0.0000   -0.0335   -0.0340   -0.0702    0.0014
    21 C2     *py       -0.0001    0.0000    0.0014   -0.0008   -0.0007    0.0003    0.0084    0.0175    0.0363   -0.0172
    22 C2     2pz       -0.0000   -0.0001    0.0000    0.0002    0.0001   -0.0000    0.0093    0.0046   -0.0141   -0.0051
    23 C2     *pz       -0.0000   -0.0003   -0.0003   -0.0002   -0.0006    0.0001    0.0014   -0.0030    0.0039    0.0079
    24 C2     *d2-      -0.0000    0.0001    0.0000    0.0001   -0.0000   -0.0001    0.0017    0.0014    0.0057   -0.0002
    25 C2     *d1-       0.0001    0.0000   -0.0000   -0.0000    0.0001   -0.0000   -0.0020   -0.0010    0.0017    0.0000
    26 C2     *d0       -0.0000    0.0000   -0.0001   -0.0001    0.0000    0.0001   -0.0030   -0.0030   -0.0046    0.0014
    27 C2     *d1+      -0.0000    0.0001   -0.0000   -0.0000   -0.0001   -0.0000   -0.0017   -0.0011    0.0006    0.0001
    28 C2     *d2+      -0.0000    0.0001   -0.0001   -0.0002   -0.0001   -0.0001   -0.0046   -0.0042   -0.0060    0.0016
    29 H3     1s        -0.0001    0.0001    0.0004   -0.0002   -0.0000    0.0002    0.0150    0.0148    0.1230   -0.2490
    30 H3     *s         0.0002   -0.0001   -0.0001   -0.0010    0.0004    0.0000   -0.0064   -0.0108   -0.0528    0.1075
    31 H3     *px        0.0000    0.0000    0.0000    0.0002   -0.0000   -0.0001    0.0006    0.0008    0.0033   -0.0082
    32 H3     *py        0.0000    0.0001    0.0000   -0.0002    0.0000   -0.0000   -0.0016   -0.0007   -0.0067    0.0102
    33 H3     *pz       -0.0000   -0.0000   -0.0000   -0.0004    0.0000   -0.0000   -0.0006   -0.0012   -0.0085    0.0155
    34 H4     1s         0.0000   -0.0001    0.0004   -0.0001   -0.0002    0.0000    0.0157    0.0209    0.1213   -0.2626
    35 H4     *s        -0.0001    0.0001   -0.0002   -0.0011   -0.0001   -0.0004   -0.0068   -0.0103   -0.0557    0.1133
    36 H4     *px        0.0000    0.0000    0.0000   -0.0005   -0.0000   -0.0000   -0.0019   -0.0020   -0.0109    0.0204
    37 H4     *py        0.0000    0.0001    0.0001    0.0000    0.0000    0.0000   -0.0007   -0.0008   -0.0016    0.0001
    38 H4     *pz       -0.0000   -0.0000    0.0000   -0.0000    0.0001   -0.0000    0.0004    0.0006   -0.0009    0.0006
    39 O1     1s         0.0013    1.0008    0.0001    0.0000   -0.0001    0.0000   -0.0082   -0.0028    0.0021    0.0001
    40 O1     2s        -0.0003    0.0036   -0.0001    0.0002   -0.0002    0.0002    0.6669    0.4721   -0.3772   -0.0108
    41 O1     *s         0.0004   -0.0063   -0.0011   -0.0000    0.0003   -0.0001   -0.0000   -0.0115   -0.0337   -0.0017
    42 O1     2px        0.0001   -0.0008    0.0002   -0.0000   -0.0000   -0.0001   -0.0286   -0.0306   -0.0356   -0.0197
    43 O1     *px       -0.0002    0.0014   -0.0001   -0.0000    0.0001    0.0002    0.0045    0.0054    0.0015    0.0107
    44 O1     2py       -0.0001    0.0009   -0.0002    0.0001    0.0000    0.0000    0.0368    0.0332    0.0391   -0.0227
    45 O1     *py        0.0002   -0.0016    0.0001   -0.0002   -0.0002   -0.0000   -0.0051   -0.0037   -0.0031    0.0123
    46 O1     2pz       -0.0002   -0.0012    0.0002   -0.0000    0.0001   -0.0000   -0.0637   -0.1021   -0.0398   -0.0047
    47 O1     *pz        0.0005    0.0021    0.0000   -0.0000   -0.0005    0.0000    0.0057    0.0202    0.0056    0.0008
    48 O1     *d2-      -0.0000    0.0000   -0.0001   -0.0000   -0.0000   -0.0000   -0.0036   -0.0020   -0.0014   -0.0001
    49 O1     *d1-       0.0001    0.0001   -0.0001    0.0000    0.0000    0.0000   -0.0039   -0.0064   -0.0021    0.0015
    50 O1     *d0        0.0001   -0.0001    0.0002    0.0000    0.0001    0.0000    0.0057    0.0027    0.0009    0.0007
    51 O1     *d1+      -0.0001   -0.0001    0.0001   -0.0000   -0.0000   -0.0000    0.0040    0.0054    0.0017    0.0014
    52 O1     *d2+      -0.0000    0.0000   -0.0000    0.0000   -0.0000   -0.0000   -0.0007   -0.0002   -0.0002    0.0020
    53 O2     1s         1.0004   -0.0015    0.0001    0.0000   -0.0000   -0.0000   -0.0034    0.0048    0.0002   -0.0002
    54 O2     2s         0.0020   -0.0004    0.0003    0.0000   -0.0002   -0.0000    0.5250   -0.7378    0.0929    0.0082
    55 O2     *s        -0.0020    0.0007   -0.0005    0.0000    0.0003    0.0001   -0.0474    0.0397    0.0000    0.0019
    56 O2     2px        0.0017   -0.0000   -0.0000    0.0000   -0.0000   -0.0000    0.0508   -0.0719   -0.0021   -0.0007
    57 O2     *px       -0.0013    0.0002    0.0000   -0.0001    0.0001    0.0001   -0.0288    0.0369   -0.0014   -0.0000
    58 O2     2py       -0.0010    0.0001    0.0000    0.0000    0.0000   -0.0000   -0.0276    0.0340    0.0056   -0.0017
    59 O2     *py        0.0008   -0.0002   -0.0000   -0.0000   -0.0001    0.0000    0.0190   -0.0215   -0.0004    0.0013
    60 O2     2pz        0.0007    0.0002   -0.0001   -0.0000    0.0000   -0.0000    0.0216   -0.0635    0.0101    0.0010
    61 O2     *pz       -0.0000   -0.0002    0.0005    0.0000   -0.0001    0.0001   -0.0025    0.0224   -0.0021   -0.0027
    62 O2     *d2-      -0.0002   -0.0000    0.0000   -0.0000   -0.0000   -0.0000   -0.0027    0.0033    0.0003   -0.0000
    63 O2     *d1-      -0.0001    0.0001   -0.0000    0.0000    0.0000   -0.0000    0.0000    0.0023   -0.0013    0.0002
    64 O2     *d0       -0.0001    0.0001   -0.0001    0.0000    0.0000   -0.0000    0.0002    0.0013   -0.0005   -0.0000
    65 O2     *d1+       0.0002   -0.0001    0.0000    0.0000   -0.0000    0.0000    0.0011   -0.0036    0.0013    0.0002
    66 O2     *d2+       0.0001    0.0000   -0.0000   -0.0000    0.0000    0.0000    0.0012   -0.0022    0.0003    0.0001
    67 H7     1s        -0.0002   -0.0003    0.0000    0.0000   -0.0001   -0.0001    0.2066   -0.3026    0.0276    0.0038
    68 H7     *s         0.0006    0.0001   -0.0000   -0.0000    0.0001    0.0000   -0.0944    0.1461   -0.0167   -0.0012
    69 H7     *px        0.0006    0.0000    0.0000    0.0000    0.0000    0.0000   -0.0200    0.0295   -0.0029   -0.0004
    70 H7     *py       -0.0004    0.0000   -0.0000    0.0000   -0.0000   -0.0000    0.0113   -0.0176    0.0020    0.0002
    71 H7     *pz        0.0003    0.0001   -0.0001   -0.0000   -0.0000    0.0000   -0.0108    0.0119   -0.0005   -0.0000
    72 C8     1s        -0.0001   -0.0000   -0.0046    0.0042    1.0015   -0.0299   -0.0017   -0.0025   -0.0109   -0.0055
    73 C8     2s        -0.0003   -0.0002    0.0001    0.0007    0.0105    0.0004    0.0616    0.0906    0.3413    0.1793
    74 C8     *s         0.0011   -0.0007   -0.0031   -0.0015   -0.0124   -0.0010   -0.0286   -0.0339   -0.1245   -0.0549
    75 C8     2px       -0.0000    0.0000    0.0001    0.0000    0.0001   -0.0002   -0.0081   -0.0119   -0.0400   -0.0307
    76 C8     *px       -0.0001   -0.0000    0.0004   -0.0001    0.0005    0.0009    0.0049    0.0034    0.0173    0.0155
    77 C8     2py        0.0000   -0.0001   -0.0002    0.0001   -0.0001    0.0000    0.0116    0.0168    0.0524   -0.0274
    78 C8     *py        0.0002    0.0000   -0.0006   -0.0009   -0.0006   -0.0001   -0.0067   -0.0043   -0.0233    0.0110
    79 C8     2pz       -0.0000   -0.0002   -0.0002    0.0000   -0.0002    0.0000    0.0284    0.0392    0.0427    0.0031
    80 C8     *pz        0.0004   -0.0004   -0.0010   -0.0001   -0.0006   -0.0002   -0.0069   -0.0134   -0.0236   -0.0062
    81 C8     *d2-      -0.0000   -0.0001    0.0000   -0.0000    0.0001    0.0000   -0.0006   -0.0012   -0.0045   -0.0005
    82 C8     *d1-       0.0000   -0.0001    0.0001   -0.0000   -0.0002   -0.0000    0.0041    0.0049    0.0066   -0.0013
    83 C8     *d0        0.0000    0.0000    0.0001    0.0001   -0.0001    0.0001    0.0026    0.0020    0.0011    0.0004
    84 C8     *d1+      -0.0000    0.0001   -0.0001    0.0000    0.0001    0.0000   -0.0031   -0.0037   -0.0050   -0.0025
    85 C8     *d2+      -0.0000   -0.0000   -0.0000    0.0001    0.0000   -0.0001   -0.0003   -0.0005   -0.0013    0.0016
    86 H9     1s        -0.0001    0.0001    0.0003    0.0000    0.0002    0.0002    0.0149    0.0252    0.1112    0.1000
    87 H9     *s         0.0000   -0.0001   -0.0002   -0.0004    0.0011    0.0001   -0.0063   -0.0108   -0.0507   -0.0459
    88 H9     *px       -0.0000    0.0000    0.0000    0.0000   -0.0002   -0.0001    0.0005    0.0007    0.0017    0.0020
    89 H9     *py       -0.0000   -0.0000   -0.0000    0.0000   -0.0004    0.0000    0.0017    0.0023    0.0100    0.0061
    90 H9     *pz       -0.0000   -0.0001   -0.0001   -0.0000    0.0001    0.0000    0.0007    0.0008   -0.0002   -0.0020
    91 H10    1s        -0.0001    0.0001    0.0003    0.0002    0.0002    0.0000    0.0151    0.0251    0.1114    0.0527
    92 H10    *s         0.0001   -0.0001   -0.0002    0.0001    0.0010   -0.0004   -0.0061   -0.0111   -0.0507   -0.0199
    93 H10    *px        0.0000    0.0000    0.0000    0.0000    0.0005   -0.0000   -0.0017   -0.0024   -0.0101   -0.0056
    94 H10    *py        0.0000   -0.0000   -0.0000    0.0001    0.0001   -0.0000   -0.0000   -0.0002    0.0005   -0.0002
    95 H10    *pz       -0.0000   -0.0001   -0.0001    0.0000    0.0001   -0.0000    0.0008    0.0009    0.0003    0.0012
    96 H11    1s        -0.0000   -0.0001    0.0002    0.0002    0.0002    0.0002    0.0156    0.0184    0.1290    0.0730
    97 H11    *s         0.0001    0.0001   -0.0002    0.0001    0.0011    0.0000   -0.0048   -0.0108   -0.0620   -0.0320
    98 H11    *px        0.0000   -0.0000    0.0000    0.0000   -0.0002   -0.0001    0.0006    0.0007    0.0036    0.0011
    99 H11    *py       -0.0000    0.0001   -0.0000    0.0001    0.0002   -0.0000   -0.0006   -0.0007   -0.0039   -0.0028
   100 H11    *pz       -0.0000    0.0000   -0.0001   -0.0000   -0.0004    0.0000    0.0015    0.0023    0.0093    0.0053
   101 C12    1s         0.0000   -0.0000   -0.0045    0.0037   -0.0303   -1.0014   -0.0014   -0.0014   -0.0115   -0.0134
   102 C12    2s         0.0001   -0.0002    0.0003    0.0007   -0.0010   -0.0104    0.0616    0.0699    0.3615    0.4324
   103 C12    *s        -0.0003   -0.0001   -0.0038   -0.0014    0.0018    0.0122   -0.0215   -0.0329   -0.1405   -0.1342
   104 C12    2px       -0.0000   -0.0002   -0.0003    0.0001   -0.0001    0.0002    0.0349    0.0340    0.0746    0.0026
   105 C12    *px        0.0000    0.0000   -0.0014   -0.0005    0.0006    0.0009   -0.0112   -0.0152   -0.0387   -0.0140
   106 C12    2py       -0.0000    0.0000   -0.0001    0.0001    0.0001    0.0000   -0.0005   -0.0021    0.0159   -0.0305
   107 C12    *py       -0.0001    0.0002   -0.0001   -0.0007   -0.0004    0.0001    0.0006    0.0005   -0.0091    0.0152
   108 C12    2pz       -0.0000   -0.0000    0.0000   -0.0000    0.0001    0.0002    0.0079    0.0025   -0.0186   -0.0074
   109 C12    *pz       -0.0000   -0.0003   -0.0002    0.0002   -0.0006   -0.0003    0.0003   -0.0005    0.0058   -0.0001
   110 C12    *d2-      -0.0000    0.0001   -0.0000   -0.0001   -0.0001    0.0000   -0.0003   -0.0002    0.0025   -0.0021
   111 C12    *d1-       0.0000   -0.0001    0.0000    0.0000    0.0001    0.0000    0.0011    0.0010   -0.0004   -0.0001
   112 C12    *d0       -0.0000    0.0000   -0.0001    0.0001    0.0000   -0.0001   -0.0031   -0.0035   -0.0044   -0.0012
   113 C12    *d1+      -0.0001   -0.0001    0.0000    0.0000   -0.0001    0.0000    0.0019    0.0005   -0.0027   -0.0011
   114 C12    *d2+      -0.0000   -0.0000    0.0001    0.0000    0.0001    0.0002    0.0049    0.0045    0.0077    0.0014
   115 H13    1s         0.0000   -0.0001    0.0004    0.0000   -0.0002   -0.0001    0.0159    0.0203    0.1184    0.2013
   116 H13    *s        -0.0001    0.0001   -0.0002   -0.0004   -0.0001   -0.0011   -0.0065   -0.0104   -0.0542   -0.0888
   117 H13    *px       -0.0000   -0.0001   -0.0001    0.0000   -0.0000    0.0001    0.0012    0.0010    0.0039    0.0026
   118 H13    *py       -0.0000   -0.0000    0.0000    0.0000    0.0000    0.0005    0.0017    0.0017    0.0100    0.0147
   119 H13    *pz       -0.0000   -0.0000    0.0000   -0.0000    0.0001   -0.0000    0.0005    0.0003   -0.0014   -0.0015
   120 H14    1s         0.0001   -0.0000    0.0002    0.0002   -0.0002   -0.0002    0.0099    0.0170    0.1376    0.1771
   121 H14    *s        -0.0000    0.0001   -0.0003    0.0001   -0.0001   -0.0012   -0.0062   -0.0079   -0.0637   -0.0775
   122 H14    *px        0.0000    0.0001   -0.0001    0.0000   -0.0000    0.0001    0.0009    0.0013    0.0043    0.0058
   123 H14    *py       -0.0000   -0.0000   -0.0000    0.0001    0.0000   -0.0002   -0.0002   -0.0006   -0.0042   -0.0061
   124 H14    *pz        0.0000    0.0000    0.0000   -0.0000    0.0001    0.0004    0.0007    0.0015    0.0098    0.0121
   125 H15    1s        -0.0001    0.0001    0.0004    0.0002   -0.0000   -0.0002    0.0161    0.0133    0.1199    0.1657
   126 H15    *s         0.0002   -0.0000   -0.0001    0.0001    0.0004   -0.0010   -0.0090   -0.0073   -0.0518   -0.0705
   127 H15    *px       -0.0000   -0.0001   -0.0000    0.0000   -0.0000    0.0001    0.0015    0.0004    0.0053    0.0060
   128 H15    *py       -0.0000   -0.0000   -0.0000    0.0001    0.0000   -0.0003   -0.0010   -0.0010   -0.0047   -0.0075
   129 H15    *pz       -0.0000   -0.0000    0.0000   -0.0000    0.0000   -0.0003   -0.0004   -0.0015   -0.0084   -0.0106
   130 H16    1s         0.0001   -0.0000    0.0002   -0.0002   -0.0002    0.0002    0.0109    0.0160    0.1403   -0.2445
   131 H16    *s        -0.0000    0.0001   -0.0003   -0.0012   -0.0001    0.0001   -0.0050   -0.0093   -0.0647    0.1064
   132 H16    *px        0.0000   -0.0000    0.0000    0.0002   -0.0000   -0.0001    0.0002    0.0002    0.0036   -0.0065
   133 H16    *py       -0.0000   -0.0001    0.0001   -0.0001    0.0000   -0.0000   -0.0009   -0.0013   -0.0048    0.0088
   134 H16    *pz        0.0000    0.0000   -0.0000    0.0004    0.0001    0.0000    0.0009    0.0013    0.0101   -0.0172
 
 
      Orbital                11        12        13        14        15        16        17        18        19        20
      Energy            -0.9382   -0.7485   -0.6583   -0.6146   -0.6078   -0.5940   -0.5452   -0.5435   -0.5154   -0.5136
      Occ. No.           2.0000    2.0000    2.0000    2.0000    2.0000    2.0000    2.0000    2.0000    2.0000    2.0000
 
     1 C1     1s        -0.0001    0.0001    0.0013    0.0022   -0.0001   -0.0013   -0.0000    0.0002   -0.0008   -0.0040
     2 C1     2s        -0.0073   -0.5472   -0.1277   -0.0001   -0.0020   -0.0306    0.0051   -0.0002    0.0148    0.0682
     3 C1     *s         0.0037    0.1055   -0.0238   -0.0180    0.0005   -0.0016    0.0012    0.0012    0.0130    0.0642
     4 C1     2px        0.1761   -0.0238    0.0397    0.2008    0.2722    0.1236   -0.0328   -0.0947   -0.0344   -0.1440
     5 C1     *px       -0.0083    0.0251   -0.0182   -0.0278   -0.0236   -0.0118   -0.0037    0.0042    0.0085    0.0531
     6 C1     2py       -0.1119    0.0246   -0.0563   -0.2142    0.2446   -0.1665   -0.0870    0.0249    0.0423    0.1636
     7 C1     *py        0.0065   -0.0350    0.0359    0.0260   -0.0234    0.0242    0.0039   -0.0088   -0.0166   -0.0619
     8 C1     2pz       -0.1397   -0.0514    0.2206    0.1086   -0.0061   -0.2490   -0.0325    0.0781   -0.0479   -0.2971
     9 C1     *pz        0.0027    0.0249   -0.0049   -0.0290    0.0021    0.0345    0.0013   -0.0057    0.0141    0.0826
    10 C1     *d2-      -0.0110    0.0026   -0.0044    0.0021   -0.0010    0.0051   -0.0141    0.0168    0.0031    0.0150
    11 C1     *d1-       0.0146    0.0054   -0.0052   -0.0035   -0.0036    0.0002   -0.0112   -0.0109    0.0052    0.0294
    12 C1     *d0        0.0145   -0.0050    0.0067    0.0011    0.0001    0.0053   -0.0054    0.0089   -0.0059   -0.0273
    13 C1     *d1+      -0.0100   -0.0048    0.0042    0.0032   -0.0048   -0.0021   -0.0163   -0.0096   -0.0051   -0.0260
    14 C1     *d2+      -0.0104    0.0006   -0.0008    0.0008    0.0038    0.0016    0.0005    0.0065    0.0005    0.0021
    15 C2     1s         0.0039   -0.0092   -0.0004   -0.0008    0.0032   -0.0015   -0.0011   -0.0002   -0.0001   -0.0001
    16 C2     2s        -0.1378    0.1825    0.0222    0.0424   -0.0507   -0.0027   -0.0152   -0.0021    0.0053    0.0256
    17 C2     *s         0.0428   -0.0106   -0.0146    0.0106   -0.0142   -0.0037    0.0058    0.0048    0.0015    0.0019
    18 C2     2px        0.0319    0.0651    0.0392    0.2923    0.1074    0.2198   -0.2162    0.1021    0.3187    0.0126
    19 C2     *px       -0.0150   -0.0263   -0.0010   -0.0628   -0.0258   -0.0362    0.0303   -0.0104   -0.0444   -0.0086
    20 C2     2py       -0.0112    0.2264    0.0980    0.0524   -0.3143    0.0270    0.1303   -0.0313   -0.1484   -0.1620
    21 C2     *py        0.0025   -0.0631   -0.0270   -0.0015    0.0630   -0.0151   -0.0257    0.0000    0.0184    0.0264
    22 C2     2pz       -0.0233   -0.0285    0.1511    0.0878   -0.0151   -0.2851   -0.4144   -0.1162   -0.1464    0.2280
    23 C2     *pz        0.0138    0.0070   -0.0451   -0.0204   -0.0058    0.0619    0.0621    0.0115    0.0182   -0.0378
    24 C2     *d2-      -0.0027   -0.0074   -0.0043   -0.0063    0.0056   -0.0032   -0.0033    0.0037    0.0054    0.0078
    25 C2     *d1-       0.0016    0.0006    0.0009    0.0011   -0.0011   -0.0035   -0.0113   -0.0058   -0.0049    0.0137
    26 C2     *d0        0.0000    0.0091    0.0016   -0.0042   -0.0123    0.0004    0.0120   -0.0014   -0.0109   -0.0083
    27 C2     *d1+       0.0010    0.0018   -0.0051   -0.0027    0.0003    0.0091    0.0093    0.0022    0.0056   -0.0044
    28 C2     *d2+      -0.0013    0.0121    0.0038    0.0087   -0.0073    0.0055   -0.0043    0.0046    0.0092   -0.0004
    29 H3     1s        -0.0821    0.1551    0.1609    0.0023   -0.2335   -0.2745   -0.1762   -0.1498   -0.3224    0.1118
    30 H3     *s         0.0366   -0.0598   -0.0286   -0.0097    0.0755    0.0989    0.0535    0.0415    0.0866   -0.0251
    31 H3     *px       -0.0024    0.0050    0.0043    0.0058   -0.0027   -0.0021   -0.0082   -0.0007   -0.0003    0.0023
    32 H3     *py        0.0014   -0.0014   -0.0049    0.0005    0.0016    0.0069    0.0073    0.0040    0.0057   -0.0060
    33 H3     *pz        0.0049   -0.0095   -0.0036    0.0016    0.0111    0.0074   -0.0007    0.0034    0.0110    0.0002
    34 H4     1s        -0.0362    0.1617    0.0581    0.3117    0.0633    0.2061   -0.2378    0.0987    0.3304    0.0360
    35 H4     *s         0.0122   -0.0482   -0.0238   -0.0948   -0.0194   -0.0643    0.0680   -0.0263   -0.0822   -0.0001
    36 H4     *px        0.0041   -0.0103   -0.0028   -0.0123   -0.0006   -0.0079    0.0083   -0.0029   -0.0112   -0.0008
    37 H4     *py        0.0013    0.0030    0.0017   -0.0009   -0.0052    0.0006    0.0032   -0.0014   -0.0036   -0.0034
    38 H4     *pz       -0.0008   -0.0012    0.0031    0.0012   -0.0003   -0.0070   -0.0081   -0.0022   -0.0038    0.0044
    39 O1     1s         0.0001   -0.0001    0.0004    0.0018   -0.0001   -0.0008    0.0000    0.0003    0.0002    0.0012
    40 O1     2s        -0.0283    0.2465   -0.0608   -0.1349    0.0038    0.0422   -0.0114    0.0088    0.0087    0.0503
    41 O1     *s        -0.0034    0.0580   -0.0294   -0.0697    0.0020    0.0259   -0.0045   -0.0002    0.0015    0.0098
    42 O1     2px        0.0209    0.1713   -0.1245   -0.1130    0.0572    0.0570   -0.0127   -0.0442    0.0498    0.2625
    43 O1     *px       -0.0102    0.0010    0.0004   -0.0103   -0.0168   -0.0067    0.0042    0.0109    0.0040    0.0160
    44 O1     2py       -0.0128   -0.1915    0.1247    0.1382    0.0409   -0.0784   -0.0368    0.0192   -0.0563   -0.3000
    45 O1     *py        0.0052    0.0009   -0.0020    0.0104   -0.0149    0.0083    0.0103   -0.0019   -0.0029   -0.0170
    46 O1     2pz       -0.0143    0.2504   -0.1508   -0.2220    0.0067    0.0410   -0.0151    0.0123    0.0744    0.3818
    47 O1     *pz        0.0045   -0.0086   -0.0027    0.0077    0.0005    0.0082    0.0024   -0.0046    0.0036    0.0204
    48 O1     *d2-       0.0012    0.0056   -0.0043   -0.0015    0.0005    0.0028   -0.0002   -0.0007    0.0011    0.0059
    49 O1     *d1-       0.0005    0.0090   -0.0034   -0.0057   -0.0028    0.0034    0.0011   -0.0012    0.0019    0.0097
    50 O1     *d0        0.0029   -0.0040   -0.0020    0.0063   -0.0002    0.0013    0.0016   -0.0021   -0.0009   -0.0039
    51 O1     *d1+      -0.0010   -0.0073    0.0017    0.0052   -0.0038   -0.0035    0.0000    0.0016   -0.0013   -0.0084
    52 O1     *d2+      -0.0004    0.0008   -0.0002   -0.0006   -0.0031    0.0010    0.0017    0.0011   -0.0001    0.0012
    53 O2     1s        -0.0009   -0.0010   -0.0015    0.0020   -0.0001   -0.0023   -0.0002    0.0008    0.0001   -0.0005
    54 O2     2s         0.0191   -0.0890    0.2114   -0.0718    0.0048    0.1459    0.0042   -0.0353   -0.0057   -0.0020
    55 O2     *s         0.0039   -0.0164    0.1199   -0.0674    0.0038    0.0925    0.0001   -0.0219   -0.0023    0.0127
    56 O2     2px        0.0170    0.0607   -0.4486    0.2540   -0.0193   -0.2912    0.0065    0.0486   -0.0108   -0.0928
    57 O2     *px       -0.0043   -0.0055    0.0364   -0.0176   -0.0012    0.0169    0.0010   -0.0015   -0.0001    0.0036
    58 O2     2py       -0.0104   -0.0442    0.2685   -0.1421    0.0058    0.1621   -0.0126   -0.0319   -0.0033    0.0410
    59 O2     *py        0.0023    0.0039   -0.0209    0.0094   -0.0028   -0.0089    0.0019    0.0035    0.0003   -0.0023
    60 O2     2pz        0.0105    0.0139   -0.2269    0.1408   -0.0084   -0.1500    0.0042    0.0305   -0.0078   -0.0741
    61 O2     *pz       -0.0098   -0.0065    0.0250   -0.0095    0.0011    0.0020   -0.0041    0.0040    0.0002    0.0026
    62 O2     *d2-      -0.0003   -0.0023    0.0106   -0.0048    0.0003    0.0063   -0.0004   -0.0011   -0.0002    0.0009
    63 O2     *d1-      -0.0002    0.0011    0.0038   -0.0041    0.0002    0.0038    0.0001   -0.0003    0.0006    0.0026
    64 O2     *d0       -0.0002   -0.0006    0.0053   -0.0030    0.0002    0.0029   -0.0003   -0.0003   -0.0001    0.0001
    65 O2     *d1+       0.0002   -0.0007   -0.0071    0.0058   -0.0003   -0.0058    0.0007    0.0013   -0.0002   -0.0034
    66 O2     *d2+       0.0002    0.0004   -0.0056    0.0036   -0.0001   -0.0040    0.0003    0.0008    0.0001   -0.0018
    67 H7     1s         0.0267    0.0460   -0.4761    0.2811   -0.0172   -0.3047    0.0149    0.0529   -0.0069   -0.1061
    68 H7     *s        -0.0102   -0.0080    0.1812   -0.1198    0.0063    0.1213   -0.0057   -0.0204    0.0063    0.0577
    69 H7     *px       -0.0024   -0.0014    0.0251   -0.0156    0.0010    0.0152   -0.0010   -0.0024    0.0007    0.0069
    70 H7     *py        0.0013    0.0001   -0.0139    0.0097   -0.0004   -0.0092    0.0002    0.0015   -0.0005   -0.0054
    71 H7     *pz       -0.0007   -0.0023    0.0134   -0.0060    0.0005    0.0065   -0.0004   -0.0008   -0.0005   -0.0008
    72 C8     1s        -0.0187   -0.0078   -0.0030    0.0018   -0.0002    0.0021    0.0007   -0.0010    0.0001    0.0002
    73 C8     2s         0.6056    0.1636    0.0647   -0.0050    0.0020   -0.0500    0.0103   -0.0140    0.0025    0.0167
    74 C8     *s        -0.1861   -0.0393    0.0330   -0.0002    0.0002   -0.0037    0.0004   -0.0010   -0.0049   -0.0193
    75 C8     2px        0.0163    0.0844    0.1117    0.1068    0.3072   -0.1262    0.2352   -0.0846   -0.2785    0.0975
    76 C8     *px       -0.0029   -0.0209   -0.0316   -0.0285   -0.0631    0.0208   -0.0288    0.0157    0.0384   -0.0117
    77 C8     2py       -0.0004   -0.1151   -0.1501   -0.0970    0.2432    0.1867   -0.0579    0.2405   -0.2571    0.0034
    78 C8     *py       -0.0063    0.0295    0.0412    0.0268   -0.0502   -0.0315    0.0123   -0.0302    0.0339   -0.0022
    79 C8     2pz        0.0031   -0.1807   -0.0598    0.2314   -0.0308    0.1576    0.2330   -0.3404    0.0519    0.2267
    80 C8     *pz       -0.0183    0.0468    0.0176   -0.0641    0.0069   -0.0281   -0.0389    0.0548   -0.0084   -0.0357
    81 C8     *d2-       0.0001    0.0048    0.0067    0.0059   -0.0017   -0.0059    0.0023   -0.0054    0.0034   -0.0028
    82 C8     *d1-       0.0015   -0.0125   -0.0051    0.0073    0.0039    0.0084    0.0053   -0.0095   -0.0006    0.0081
    83 C8     *d0        0.0007   -0.0053   -0.0030   -0.0030   -0.0005    0.0064   -0.0087    0.0114   -0.0028   -0.0123
    84 C8     *d1+      -0.0001    0.0095    0.0032   -0.0058    0.0059   -0.0061   -0.0069    0.0071   -0.0026   -0.0067
    85 C8     *d2+      -0.0005    0.0015    0.0019    0.0012    0.0086   -0.0010    0.0068    0.0037   -0.0162    0.0022
    86 H9     1s         0.2523    0.1513    0.1364    0.0764   -0.3093   -0.1576    0.0129   -0.2442    0.3496    0.0030
    87 H9     *s        -0.1078   -0.0474   -0.0458   -0.0246    0.0948    0.0471   -0.0048    0.0715   -0.0883    0.0082
    88 H9     *px        0.0059    0.0041    0.0041    0.0034    0.0014   -0.0044    0.0050   -0.0053   -0.0007    0.0018
    89 H9     *py        0.0195    0.0086    0.0054    0.0014   -0.0123   -0.0059   -0.0005   -0.0075    0.0129   -0.0002
    90 H9     *pz       -0.0014   -0.0039   -0.0011    0.0047    0.0013    0.0028    0.0043   -0.0061   -0.0007    0.0045
    91 H10    1s         0.2666    0.1512    0.1289    0.1007    0.3131   -0.1367    0.2466   -0.0848   -0.3074    0.1260
    92 H10    *s        -0.1155   -0.0475   -0.0420   -0.0326   -0.0953    0.0415   -0.0709    0.0256    0.0806   -0.0227
    93 H10    *px       -0.0206   -0.0095   -0.0058   -0.0028   -0.0120    0.0062   -0.0083    0.0027    0.0110   -0.0044
    94 H10    *py       -0.0017   -0.0022   -0.0030   -0.0025    0.0040    0.0033   -0.0019    0.0053   -0.0043   -0.0001
    95 H10    *pz       -0.0011   -0.0032   -0.0007    0.0048   -0.0016    0.0023    0.0048   -0.0064    0.0018    0.0042
    96 H11    1s         0.2476    0.1636   -0.0010   -0.2782    0.0162   -0.0555   -0.3128    0.4286   -0.0547   -0.2617
    97 H11    *s        -0.1086   -0.0506   -0.0006    0.0668   -0.0040    0.0139    0.0787   -0.1080    0.0116    0.0535
    98 H11    *px        0.0069    0.0047    0.0019   -0.0028    0.0064   -0.0034   -0.0004    0.0057   -0.0067   -0.0011
    99 H11    *py       -0.0072   -0.0055   -0.0025    0.0035    0.0045    0.0046    0.0048   -0.0031   -0.0048    0.0034
   100 H11    *pz        0.0178    0.0069   -0.0002   -0.0096    0.0003   -0.0008   -0.0103    0.0137   -0.0014   -0.0072
   101 C12    1s         0.0133   -0.0093   -0.0001   -0.0011   -0.0031   -0.0016    0.0007    0.0013    0.0001   -0.0001
   102 C12    2s        -0.4402    0.1894    0.0105    0.0538    0.0481   -0.0042    0.0105    0.0187    0.0065    0.0238
   103 C12    *s         0.1369   -0.0151   -0.0076    0.0094    0.0141    0.0019   -0.0052   -0.0057    0.0001    0.0011
   104 C12    2px        0.0023   -0.2353   -0.0759   -0.1416   -0.2655   -0.0852    0.0338    0.1040    0.0114    0.1789
   105 C12    *px        0.0103    0.0653    0.0277    0.0163    0.0546    0.0306   -0.0125   -0.0248   -0.0051   -0.0262
   106 C12    2py       -0.0209   -0.0154   -0.0162   -0.2478    0.2034   -0.2052    0.0394   -0.2404    0.3119   -0.1728
   107 C12    *py        0.0089    0.0129   -0.0081    0.0578   -0.0448    0.0291    0.0011    0.0357   -0.0390    0.0299
   108 C12    2pz       -0.0212   -0.0173    0.1734    0.0828    0.0349   -0.2192    0.2578    0.3754    0.2099    0.1565
   109 C12    *pz        0.0154    0.0030   -0.0483   -0.0214    0.0013    0.0528   -0.0355   -0.0610   -0.0301   -0.0284
   110 C12    *d2-      -0.0024   -0.0016   -0.0021   -0.0021   -0.0015   -0.0015   -0.0031    0.0066   -0.0047    0.0095
   111 C12    *d1-      -0.0004   -0.0015    0.0057    0.0020    0.0013   -0.0080    0.0076    0.0096    0.0094    0.0035
   112 C12    *d0        0.0010    0.0092    0.0006   -0.0028    0.0124    0.0009   -0.0025   -0.0120    0.0068   -0.0111
   113 C12    *d1+      -0.0012    0.0006    0.0004    0.0004    0.0006    0.0006   -0.0078   -0.0080   -0.0070   -0.0117
   114 C12    *d2+      -0.0010   -0.0141   -0.0045   -0.0115   -0.0078   -0.0057    0.0012   -0.0035    0.0067    0.0003
   115 H13    1s        -0.1720    0.1644    0.0512    0.3017   -0.0956    0.1957   -0.0224    0.2486   -0.2983    0.1609
   116 H13    *s         0.0716   -0.0501   -0.0204   -0.0931    0.0299   -0.0614    0.0053   -0.0712    0.0794   -0.0326
   117 H13    *px       -0.0042   -0.0008   -0.0006    0.0030   -0.0054    0.0007    0.0001    0.0058   -0.0037    0.0055
   118 H13    *py       -0.0139    0.0109    0.0029    0.0118   -0.0007    0.0076   -0.0001    0.0077   -0.0095    0.0041
   119 H13    *pz        0.0004   -0.0016    0.0034    0.0003    0.0010   -0.0062    0.0052    0.0068    0.0058    0.0022
   120 H14    1s        -0.1782    0.1825   -0.1084   -0.0799    0.1752    0.1464   -0.2245   -0.4596   -0.0745   -0.2989
   121 H14    *s         0.0777   -0.0620    0.0339    0.0178   -0.0441   -0.0327    0.0569    0.1175    0.0144    0.0579
   122 H14    *px       -0.0059    0.0015   -0.0036   -0.0036   -0.0001    0.0018   -0.0044   -0.0080   -0.0017   -0.0040
   123 H14    *py        0.0048   -0.0049    0.0024   -0.0034    0.0004   -0.0070    0.0054    0.0040    0.0080    0.0011
   124 H14    *pz       -0.0129    0.0099   -0.0016   -0.0020    0.0093    0.0027   -0.0048   -0.0133    0.0014   -0.0085
   125 H15    1s        -0.2029    0.1562    0.1603    0.0153    0.2477   -0.2252    0.2131    0.1349    0.3340   -0.0155
   126 H15    *s         0.0881   -0.0614   -0.0227   -0.0179   -0.0793    0.0884   -0.0650   -0.0454   -0.0909    0.0108
   127 H15    *px       -0.0045   -0.0002    0.0042   -0.0019    0.0010   -0.0046    0.0052    0.0043    0.0066    0.0032
   128 H15    *py        0.0080   -0.0055   -0.0055   -0.0054   -0.0031    0.0025   -0.0049   -0.0087   -0.0028   -0.0027
   129 H15    *pz        0.0126   -0.0096   -0.0029    0.0006   -0.0116    0.0069   -0.0037    0.0012   -0.0104    0.0044
   130 H16    1s        -0.0539    0.1794   -0.0804   -0.1219   -0.1812    0.1913    0.4908    0.0585   -0.0402   -0.2995
   131 H16    *s         0.0238   -0.0604    0.0239    0.0310    0.0458   -0.0472   -0.1284   -0.0150    0.0071    0.0578
   132 H16    *px       -0.0005    0.0048   -0.0011    0.0037   -0.0007    0.0076    0.0035    0.0032    0.0065   -0.0032
   133 H16    *py        0.0018   -0.0019    0.0034    0.0033   -0.0006   -0.0044   -0.0090   -0.0022   -0.0020    0.0047
   134 H16    *pz       -0.0044    0.0096   -0.0007   -0.0039   -0.0094    0.0036    0.0141    0.0001   -0.0047   -0.0073
 
 
      Orbital                21        22        23        24        25        26
      Energy            -0.4828   -0.4817   -0.4467    0.0025    0.0002    0.0031
      Occ. No.           2.0000    2.0000    1.8001    1.6004    1.3993    1.2002
 
     1 C1     1s        -0.0001   -0.0000   -0.0024   -0.0003   -0.0003    0.0002
     2 C1     2s        -0.0026   -0.0002   -0.0002    0.0062    0.0078   -0.0033
     3 C1     *s        -0.0002    0.0065    0.0014    0.0105    0.0077    0.0147
     4 C1     2px        0.3728    0.2596   -0.0244    0.0537   -0.0415    0.0071
     5 C1     *px       -0.0572   -0.0410   -0.0022    0.0092    0.0388   -0.0004
     6 C1     2py        0.3158   -0.3025    0.0305    0.0409   -0.0418   -0.0115
     7 C1     *py       -0.0489    0.0459    0.0134    0.0078    0.0283   -0.0027
     8 C1     2pz       -0.0027   -0.2750    0.0548    0.0090    0.0133   -0.0703
     9 C1     *pz        0.0025    0.0288    0.0243   -0.0011   -0.0023   -0.0020
    10 C1     *d2-       0.0085   -0.0209   -0.0067    0.0037   -0.0041    0.0099
    11 C1     *d1-       0.0021    0.0197   -0.0126   -0.0111    0.0108    0.0118
    12 C1     *d0       -0.0008    0.0167   -0.0177   -0.0000   -0.0005    0.0207
    13 C1     *d1+       0.0064   -0.0138    0.0101   -0.0100    0.0145   -0.0088
    14 C1     *d2+      -0.0326   -0.0067   -0.0005   -0.0196    0.0204    0.0012
    15 C2     1s         0.0002   -0.0004    0.0011    0.0004    0.0015    0.0006
    16 C2     2s         0.0859   -0.0415    0.0301    0.0687   -0.0406   -0.0156
    17 C2     *s         0.0251   -0.0077   -0.0171    0.0079   -0.0353   -0.0131
    18 C2     2px       -0.2919   -0.0937   -0.0126   -0.0099    0.0015    0.0090
    19 C2     *px        0.0311    0.0068    0.0018   -0.0029   -0.0095    0.0083
    20 C2     2py       -0.3177    0.2419   -0.0340   -0.0794    0.0924    0.0346
    21 C2     *py        0.0379   -0.0238    0.0030    0.0297    0.0174    0.0001
    22 C2     2pz       -0.0536    0.1803    0.0145    0.0430   -0.0011   -0.0001
    23 C2     *pz        0.0043   -0.0127   -0.0152   -0.0202    0.0065   -0.0036
    24 C2     *d2-       0.0023   -0.0141    0.0012   -0.0002   -0.0002   -0.0006
    25 C2     *d1-      -0.0018    0.0148    0.0003    0.0015    0.0014    0.0031
    26 C2     *d0       -0.0010    0.0090   -0.0026   -0.0030    0.0017   -0.0000
    27 C2     *d1+       0.0019   -0.0052   -0.0004   -0.0022    0.0011    0.0013
    28 C2     *d2+      -0.0225   -0.0052    0.0002   -0.0015    0.0027    0.0006
    29 H3     1s        -0.0600    0.3273    0.0020    0.0258    0.0164    0.0152
    30 H3     *s         0.0131   -0.0689    0.0006   -0.0285   -0.0268    0.0151
    31 H3     *px       -0.0073    0.0026    0.0005    0.0005    0.0000    0.0006
    32 H3     *py       -0.0041   -0.0048    0.0008   -0.0007    0.0027    0.0000
    33 H3     *pz        0.0019   -0.0083   -0.0011   -0.0015   -0.0020   -0.0011
    34 H4     1s        -0.3156   -0.1167    0.0071    0.0150   -0.0071   -0.0057
    35 H4     *s         0.0569    0.0208    0.0002   -0.0292    0.0225   -0.0062
    36 H4     *px        0.0099    0.0026   -0.0003   -0.0002    0.0007    0.0008
    37 H4     *py       -0.0036    0.0061   -0.0008    0.0001   -0.0010    0.0009
    38 H4     *pz       -0.0002    0.0040    0.0008    0.0005    0.0011    0.0003
    39 O1     1s        -0.0000    0.0007    0.0026    0.0008   -0.0001    0.0015
    40 O1     2s        -0.0004   -0.0048    0.0455    0.0022   -0.0097    0.1437
    41 O1     *s        -0.0004   -0.0058    0.0140   -0.0090   -0.0060    0.0661
    42 O1     2px        0.0550    0.0434    0.3055   -0.5006    0.5254   -0.3242
    43 O1     *px       -0.0118   -0.0067    0.0114   -0.0302    0.0264   -0.0348
    44 O1     2py        0.0511   -0.0507   -0.3740   -0.4069    0.4559    0.4031
    45 O1     *py       -0.0099    0.0075   -0.0189   -0.0266    0.0221    0.0417
    46 O1     2pz       -0.0030   -0.0373   -0.4163    0.0041   -0.0236    0.5488
    47 O1     *pz        0.0007    0.0066   -0.0034    0.0014    0.0023    0.0523
    48 O1     *d2-       0.0009    0.0032    0.0063   -0.0014    0.0011   -0.0037
    49 O1     *d1-      -0.0034    0.0014   -0.0041    0.0021   -0.0058   -0.0044
    50 O1     *d0       -0.0000    0.0069    0.0041    0.0009    0.0009   -0.0113
    51 O1     *d1+      -0.0039   -0.0011    0.0029    0.0031   -0.0060    0.0036
    52 O1     *d2+      -0.0052    0.0004    0.0016    0.0076   -0.0051   -0.0008
    53 O2     1s        -0.0001   -0.0008    0.0015    0.0003    0.0007   -0.0018
    54 O2     2s         0.0036   -0.0054    0.0430    0.0034    0.0091   -0.1296
    55 O2     *s         0.0033    0.0010    0.0161   -0.0026   -0.0011   -0.0599
    56 O2     2px       -0.0091    0.0182   -0.1702   -0.3492   -0.4058   -0.1967
    57 O2     *px       -0.0009    0.0002   -0.0039   -0.0163   -0.0193   -0.0147
    58 O2     2py        0.0025   -0.0116    0.2515   -0.5351   -0.5535    0.2905
    59 O2     *py       -0.0021   -0.0017    0.0010   -0.0246   -0.0251    0.0254
    60 O2     2pz       -0.0030   -0.0015    0.5683    0.1291    0.1211    0.6652
    61 O2     *pz        0.0010   -0.0098    0.0066    0.0075    0.0065    0.0624
    62 O2     *d2-       0.0001   -0.0005    0.0053   -0.0040   -0.0041    0.0046
    63 O2     *d1-      -0.0001   -0.0005   -0.0060   -0.0022   -0.0046    0.0020
    64 O2     *d0        0.0001   -0.0007    0.0024    0.0008    0.0014    0.0100
    65 O2     *d1+      -0.0003    0.0005    0.0091    0.0019   -0.0019    0.0021
    66 O2     *d2+      -0.0001    0.0003   -0.0000   -0.0098   -0.0078   -0.0018
    67 H7     1s        -0.0089    0.0213    0.0139    0.0122   -0.0142   -0.0566
    68 H7     *s         0.0016   -0.0051    0.0274   -0.0093    0.0074    0.0673
    69 H7     *px        0.0004   -0.0009   -0.0063   -0.0134   -0.0103   -0.0018
    70 H7     *py       -0.0003    0.0002    0.0077   -0.0167   -0.0175    0.0058
    71 H7     *pz        0.0004   -0.0011    0.0139    0.0048    0.0032    0.0196
    72 C8     1s        -0.0000    0.0003    0.0001   -0.0000   -0.0000   -0.0001
    73 C8     2s        -0.0042    0.0989   -0.0708   -0.0028    0.0008    0.0801
    74 C8     *s        -0.0002    0.0237    0.0003   -0.0010   -0.0009    0.0245
    75 C8     2px       -0.1989   -0.2680    0.0195    0.0139   -0.0145   -0.0198
    76 C8     *px        0.0183    0.0312   -0.0047    0.0041   -0.0111   -0.0033
    77 C8     2py       -0.1810    0.3190   -0.0298    0.0077   -0.0127    0.0308
    78 C8     *py        0.0177   -0.0373    0.0048    0.0042   -0.0076    0.0038
    79 C8     2pz       -0.0019    0.2288   -0.0941   -0.0060    0.0001    0.1002
    80 C8     *pz        0.0006   -0.0341    0.0210   -0.0011   -0.0021   -0.0224
    81 C8     *d2-       0.0056   -0.0096   -0.0014    0.0003   -0.0005    0.0010
    82 C8     *d1-       0.0033    0.0102   -0.0033    0.0004   -0.0006    0.0048
    83 C8     *d0       -0.0009    0.0146    0.0004    0.0002    0.0003   -0.0027
    84 C8     *d1+       0.0061   -0.0063    0.0025    0.0007   -0.0012   -0.0040
    85 C8     *d2+      -0.0221   -0.0039   -0.0000   -0.0010    0.0021   -0.0001
    86 H9     1s         0.2685   -0.1971   -0.0170   -0.0028    0.0064    0.0260
    87 H9     *s        -0.0496    0.0366    0.0186    0.0151   -0.0228   -0.0210
    88 H9     *px       -0.0020   -0.0075    0.0001   -0.0001    0.0002    0.0000
    89 H9     *py        0.0089   -0.0041   -0.0011    0.0004   -0.0002    0.0012
    90 H9     *pz        0.0003    0.0045   -0.0002    0.0019   -0.0020    0.0000
    91 H10    1s        -0.2519   -0.2296   -0.0173    0.0023   -0.0053    0.0267
    92 H10    *s         0.0463    0.0424    0.0206   -0.0147    0.0212   -0.0227
    93 H10    *px        0.0077    0.0068    0.0011    0.0004   -0.0000   -0.0012
    94 H10    *py       -0.0045    0.0061   -0.0004   -0.0004    0.0002    0.0002
    95 H10    *pz       -0.0010    0.0040   -0.0003   -0.0020    0.0019   -0.0001
    96 H11    1s        -0.0009    0.0521    0.0567    0.0037    0.0008   -0.0712
    97 H11    *s         0.0007   -0.0248    0.0042   -0.0003   -0.0006   -0.0176
    98 H11    *px       -0.0041   -0.0043    0.0017    0.0003   -0.0002   -0.0018
    99 H11    *py       -0.0037    0.0051   -0.0020    0.0000   -0.0002    0.0023
   100 H11    *pz       -0.0000    0.0063   -0.0005   -0.0000    0.0001    0.0009
   101 C12    1s        -0.0001   -0.0004    0.0006    0.0001   -0.0012    0.0008
   102 C12    2s        -0.0805   -0.0468    0.0315   -0.0577    0.0451   -0.0162
   103 C12    *s        -0.0237   -0.0096   -0.0091   -0.0095    0.0356   -0.0169
   104 C12    2px       -0.3551   -0.2397    0.0404   -0.0805    0.0853   -0.0399
   105 C12    *px        0.0428    0.0241    0.0008    0.0185    0.0078   -0.0033
   106 C12    2py       -0.2301    0.1463    0.0050    0.0128   -0.0120   -0.0003
   107 C12    *py        0.0230   -0.0109   -0.0030   -0.0039   -0.0085   -0.0066
   108 C12    2pz        0.0606    0.2055    0.0137   -0.0251    0.0070    0.0032
   109 C12    *pz       -0.0068   -0.0158   -0.0131    0.0160   -0.0081   -0.0025
   110 C12    *d2-       0.0084   -0.0146    0.0010    0.0004   -0.0012   -0.0004
   111 C12    *d1-       0.0004    0.0101    0.0006   -0.0022    0.0011   -0.0004
   112 C12    *d0        0.0004    0.0101   -0.0030    0.0027   -0.0021    0.0001
   113 C12    *d1+       0.0008   -0.0120   -0.0006    0.0008    0.0009   -0.0035
   114 C12    *d2+      -0.0214   -0.0039    0.0007   -0.0015    0.0024   -0.0010
   115 H13    1s         0.3287   -0.1025    0.0070   -0.0159    0.0035   -0.0055
   116 H13    *s        -0.0616    0.0196   -0.0005    0.0294   -0.0202   -0.0047
   117 H13    *px       -0.0008   -0.0066    0.0008    0.0005   -0.0008   -0.0010
   118 H13    *py        0.0107   -0.0006    0.0003   -0.0002    0.0008   -0.0006
   119 H13    *pz       -0.0006    0.0047    0.0005    0.0001   -0.0007    0.0003
   120 H14    1s        -0.0415   -0.0582   -0.0171    0.0494   -0.0343    0.0037
   121 H14    *s         0.0162    0.0163   -0.0018    0.0068   -0.0002   -0.0006
   122 H14    *px       -0.0074   -0.0058    0.0014   -0.0018    0.0020   -0.0012
   123 H14    *py       -0.0039    0.0041    0.0004   -0.0007    0.0007   -0.0004
   124 H14    *pz       -0.0006    0.0017    0.0004    0.0015   -0.0015    0.0010
   125 H15    1s         0.0307    0.3502    0.0019   -0.0139   -0.0062    0.0168
   126 H15    *s        -0.0059   -0.0774    0.0022    0.0109    0.0128    0.0132
   127 H15    *px       -0.0059    0.0035   -0.0010   -0.0017    0.0016   -0.0004
   128 H15    *py       -0.0059   -0.0044   -0.0003    0.0002   -0.0009   -0.0005
   129 H15    *pz       -0.0007   -0.0092   -0.0011    0.0002    0.0007   -0.0013
   130 H16    1s         0.0487   -0.0508   -0.0151   -0.0569    0.0321    0.0029
   131 H16    *s        -0.0181    0.0142   -0.0035   -0.0073    0.0005   -0.0009
   132 H16    *px       -0.0050   -0.0028   -0.0007   -0.0013    0.0011    0.0005
   133 H16    *py       -0.0069    0.0058   -0.0012   -0.0019    0.0017    0.0011
   134 H16    *pz        0.0010    0.0016    0.0004   -0.0014    0.0015    0.0007
--
 
      Von Neumann Entropy (Root   1) =  0.58024
 

      Mulliken population analysis for root number:  1
      -----------------------------------------------
 
 
++    Molecular charges:
      ------------------
 
      Mulliken charges per centre and basis function type
      ---------------------------------------------------
 
                C1      C2      H3      H4      O1      O2      H7      C8      H9      H10     H11     C12   
      1s       2.0043  2.0039  1.2568  1.2665  2.0017  2.0008  1.0536  2.0040  1.2649  1.2658  1.2682  2.0039
      2s       1.3896  1.4510  0.0000  0.0000  1.8639  1.8909  0.0000  1.4489  0.0000  0.0000  0.0000  1.4511
[...]
   112 C12    *d0        0.0002    0.0112   -0.0030    0.0032   -0.0023    0.0010
   113 C12    *d1+       0.0007   -0.0087   -0.0010    0.0013    0.0007   -0.0033
   114 C12    *d2+      -0.0214   -0.0044    0.0006   -0.0015    0.0028   -0.0014
   115 H13    1s         0.3320   -0.1154    0.0064   -0.0158    0.0052   -0.0036
   116 H13    *s        -0.0613    0.0205    0.0005    0.0303   -0.0215   -0.0051
   117 H13    *px       -0.0008   -0.0069    0.0009    0.0002   -0.0007   -0.0011
   118 H13    *py        0.0108   -0.0008    0.0002   -0.0002    0.0008   -0.0005
   119 H13    *pz       -0.0006    0.0042    0.0006   -0.0001   -0.0009    0.0002
   120 H14    1s        -0.0503   -0.0138   -0.0195    0.0546   -0.0363    0.0058
   121 H14    *s         0.0188    0.0090   -0.0031    0.0068   -0.0015    0.0004
   122 H14    *px       -0.0076   -0.0048    0.0014   -0.0019    0.0020   -0.0014
   123 H14    *py       -0.0037    0.0037    0.0004   -0.0007    0.0007   -0.0004
   124 H14    *pz       -0.0005    0.0027    0.0003    0.0015   -0.0017    0.0009
   125 H15    1s         0.0380    0.3309    0.0043   -0.0218   -0.0081    0.0124
   126 H15    *s        -0.0082   -0.0726    0.0027    0.0199    0.0183    0.0140
   127 H15    *px       -0.0059    0.0027   -0.0010   -0.0011    0.0021   -0.0001
   128 H15    *py       -0.0061   -0.0041   -0.0004    0.0004   -0.0007   -0.0004
   129 H15    *pz       -0.0005   -0.0090   -0.0012    0.0012    0.0012   -0.0009
   130 H16    1s         0.0522   -0.0095   -0.0180   -0.0560    0.0383    0.0045
   131 H16    *s        -0.0193    0.0082   -0.0032   -0.0069    0.0021    0.0005
   132 H16    *px       -0.0051   -0.0024   -0.0007   -0.0013    0.0013    0.0007
   133 H16    *py       -0.0067    0.0055   -0.0012   -0.0018    0.0019    0.0013
   134 H16    *pz        0.0014    0.0027    0.0005   -0.0014    0.0015    0.0006
--
 
      Von Neumann Entropy (Root   1) =  0.58866
 

      Mulliken population analysis for root number:  1
      -----------------------------------------------
 
 
++    Molecular charges:
      ------------------
 
      Mulliken charges per centre and basis function type
      ---------------------------------------------------
 
                C1      C2      H3      H4      O1      O2      H7      C8      H9      H10     H11     C12   
      1s       2.0042  2.0039  1.2564  1.2664  2.0017  2.0008  1.0680  2.0039  1.2653  1.2653  1.2646  2.0039
      2s       1.3893  1.4504  0.0000  0.0000  1.8633  1.8905  0.0000  1.4499  0.0000  0.0000  0.0000  1.4503
      2px      1.0671  1.1622  0.0000  0.0000  1.6371  1.6952  0.0000  1.1590  0.0000  0.0000  0.0000  1.0938
      2pz      0.8922  1.1746  0.0000  0.0000  1.1843  1.0841  0.0000  1.1197  0.0000  0.0000  0.0000  1.1745
      2py      1.0616  1.1026  0.0000  0.0000  1.5074  1.5932  0.0000  1.1468  0.0000  0.0000  0.0000  1.1707
      *s      -0.1913 -0.4465 -0.3342 -0.3272  0.0281 -0.0613 -0.3260 -0.4484 -0.3297 -0.3299 -0.3258 -0.4465
      *px     -0.0771 -0.1763  0.0072  0.0209  0.0442  0.0047  0.0297 -0.1757  0.0061  0.0210  0.0069 -0.1789
      *pz     -0.1029 -0.1854  0.0156  0.0055 -0.0180 -0.0306  0.0181 -0.1892  0.0048  0.0048  0.0170 -0.1852
      *py     -0.0789 -0.1774  0.0085  0.0042  0.0378 -0.0166  0.0315 -0.1762  0.0198  0.0050  0.0068 -0.1746
      *d2+     0.0393  0.0179  0.0000  0.0000  0.0008  0.0007  0.0000  0.0176  0.0000  0.0000  0.0000  0.0171
      *d1+     0.0329  0.0054  0.0000  0.0000  0.0030  0.0021  0.0000  0.0084  0.0000  0.0000  0.0000  0.0098
      *d0      0.0355  0.0123  0.0000  0.0000  0.0029  0.0003  0.0000  0.0138  0.0000  0.0000  0.0000  0.0121
      *d1-     0.0370  0.0126  0.0000  0.0000  0.0034  0.0027  0.0000  0.0116  0.0000  0.0000  0.0000  0.0086
      *d2-     0.0243  0.0087  0.0000  0.0000  0.0010  0.0027  0.0000  0.0054  0.0000  0.0000  0.0000  0.0093
      Total    6.1332  5.9651  0.9535  0.9698  8.2970  8.1685  0.8214  5.9465  0.9663  0.9662  0.9695  5.9649
 
      N-E     -0.1332  0.0349  0.0465  0.0302 -0.2970 -0.1685  0.1786  0.0535  0.0337  0.0338  0.0305  0.0351
 
                H13     H14     H15     H16   
      1s       1.2664  1.2705  1.2560  1.2705
      2s       0.0000  0.0000  0.0000  0.0000
      2px      0.0000  0.0000  0.0000  0.0000
      2pz      0.0000  0.0000  0.0000  0.0000
      2py      0.0000  0.0000  0.0000  0.0000
      *s      -0.3272 -0.3235 -0.3344 -0.3237
      *px      0.0053  0.0072  0.0063  0.0068
      *pz      0.0057  0.0163  0.0155  0.0164
      *py      0.0196  0.0072  0.0096  0.0075
      *d2+     0.0000  0.0000  0.0000  0.0000
      *d1+     0.0000  0.0000  0.0000  0.0000
      *d0      0.0000  0.0000  0.0000  0.0000
      *d1-     0.0000  0.0000  0.0000  0.0000
      *d2-     0.0000  0.0000  0.0000  0.0000
      Total    0.9699  0.9777  0.9529  0.9776
 
      N-E      0.0301  0.0223  0.0471  0.0224
 
      Total electronic charge=   50.000000
 
      Total            charge=   -0.000000
--
 
 

      Expectation values of various properties for root number:  1
      -----------------------------------------------------------
 
 
++    Molecular properties:
      ---------------------
 
      Charge (e):
                      =   -0.0000
      Dipole Moment (Debye):
      Origin of the operator (Ang)=    0.0000    0.0000    0.0000
                   X=  2.4723E-01               Y= -3.2632E-01               Z= -5.6778E-01           Total=  6.9999E-01
      Quadrupole Moment (Debye*Ang):
      Origin of the operator (Ang)=    0.0119    0.1021    0.0329
                  XX= -3.8772E+01              XY= -3.5624E-01              XZ=  1.6371E+00              YY= -3.8840E+01
                  YZ= -1.5959E+00              ZZ= -3.4038E+01
      In traceless form (Debye*Ang)
                  XX= -2.3329E+00              XY= -5.3436E-01              XZ=  2.4556E+00              YY= -2.4350E+00
                  YZ= -2.3939E+00              ZZ=  4.7679E+00
--
 
      Von Neumann Entropy (Root   2) =  1.15148
 

      Mulliken population analysis for root number:  2
      -----------------------------------------------
 
 
++    Molecular charges:
      ------------------
 
      Mulliken charges per centre and basis function type
      ---------------------------------------------------
 
                C1      C2      H3      H4      O1      O2      H7      C8      H9      H10     H11     C12   
      1s       2.0042  2.0039  1.2565  1.2665  2.0017  2.0008  1.0669  2.0039  1.2651  1.2651  1.2681  2.0039
      2s       1.3897  1.4495  0.0000  0.0000  1.8701  1.8942  0.0000  1.4517  0.0000  0.0000  0.0000  1.4495
      2px      1.0680  1.1622  0.0000  0.0000  1.4161  1.5122  0.0000  1.1596  0.0000  0.0000  0.0000  1.0890
      2pz      0.8962  1.1747  0.0000  0.0000  1.4272  1.3606  0.0000  1.1246  0.0000  0.0000  0.0000  1.1746
      2py      1.0619  1.0971  0.0000  0.0000  1.4623  1.4973  0.0000  1.1485  0.0000  0.0000  0.0000  1.1707
      *s      -0.1915 -0.4463 -0.3343 -0.3282  0.0279 -0.0632 -0.3216 -0.4488 -0.3292 -0.3293 -0.3252 -0.4463
      *px     -0.0787 -0.1761  0.0072  0.0209  0.0376 -0.0015  0.0276 -0.1755  0.0061  0.0210  0.0069 -0.1789
      *pz     -0.1030 -0.1858  0.0156  0.0055 -0.0068 -0.0160  0.0214 -0.1884  0.0048  0.0047  0.0170 -0.1855
      *py     -0.0801 -0.1775  0.0085  0.0043  0.0397 -0.0194  0.0303 -0.1761  0.0198  0.0050  0.0068 -0.1744
      *d2+     0.0354  0.0179  0.0000  0.0000  0.0008  0.0006  0.0000  0.0175  0.0000  0.0000  0.0000  0.0171
      *d1+     0.0317  0.0053  0.0000  0.0000  0.0030  0.0020  0.0000  0.0085  0.0000  0.0000  0.0000  0.0098
      *d0      0.0400  0.0123  0.0000  0.0000  0.0034  0.0009  0.0000  0.0139  0.0000  0.0000  0.0000  0.0121
      *d1-     0.0369  0.0126  0.0000  0.0000  0.0035  0.0027  0.0000  0.0117  0.0000  0.0000  0.0000  0.0085
      *d2-     0.0249  0.0087  0.0000  0.0000  0.0010  0.0027  0.0000  0.0054  0.0000  0.0000  0.0000  0.0093
      Total    6.1357  5.9588  0.9535  0.9690  8.2874  8.1739  0.8246  5.9566  0.9666  0.9666  0.9737  5.9594
 
      N-E     -0.1357  0.0412  0.0465  0.0310 -0.2874 -0.1739  0.1754  0.0434  0.0334  0.0334  0.0263  0.0406
 
                H13     H14     H15     H16   
      1s       1.2665  1.2691  1.2562  1.2690
      2s       0.0000  0.0000  0.0000  0.0000
      2px      0.0000  0.0000  0.0000  0.0000
      2pz      0.0000  0.0000  0.0000  0.0000
      2py      0.0000  0.0000  0.0000  0.0000
      *s      -0.3281 -0.3236 -0.3345 -0.3237
      *px      0.0054  0.0071  0.0062  0.0068
      *pz      0.0057  0.0163  0.0154  0.0164
      *py      0.0196  0.0072  0.0096  0.0075
      *d2+     0.0000  0.0000  0.0000  0.0000
      *d1+     0.0000  0.0000  0.0000  0.0000
      *d0      0.0000  0.0000  0.0000  0.0000
      *d1-     0.0000  0.0000  0.0000  0.0000
      *d2-     0.0000  0.0000  0.0000  0.0000
      Total    0.9690  0.9762  0.9530  0.9760
 
      N-E      0.0310  0.0238  0.0470  0.0240
 
      Total electronic charge=   50.000000
 
      Total            charge=   -0.000000
--
 
 

      Expectation values of various properties for root number:  2
      -----------------------------------------------------------
 
 
++    Molecular properties:
      ---------------------
 
      Charge (e):
                      =   -0.0000
      Dipole Moment (Debye):
      Origin of the operator (Ang)=    0.0000    0.0000    0.0000
                   X=  2.4065E-01               Y= -3.0868E-01               Z= -6.0930E-01           Total=  7.2418E-01
      Quadrupole Moment (Debye*Ang):
      Origin of the operator (Ang)=    0.0119    0.1021    0.0329
                  XX= -3.8123E+01              XY=  3.1946E-01              XZ=  2.0536E+00              YY= -3.8485E+01
                  YZ= -2.2701E+00              ZZ= -3.5314E+01
      In traceless form (Debye*Ang)
                  XX= -1.2229E+00              XY=  4.7919E-01              XZ=  3.0805E+00              YY= -1.7670E+00
                  YZ= -3.4052E+00              ZZ=  2.9900E+00
--
 
      Von Neumann Entropy (Root   3) =  1.20530
 

      Mulliken population analysis for root number:  3
      -----------------------------------------------
 
 
++    Molecular charges:
      ------------------
 
      Mulliken charges per centre and basis function type
      ---------------------------------------------------
 
                C1      C2      H3      H4      O1      O2      H7      C8      H9      H10     H11     C12   
      1s       2.0042  2.0039  1.2567  1.2665  2.0017  2.0008  1.0669  2.0039  1.2651  1.2652  1.2673  2.0039
      2s       1.3898  1.4498  0.0000  0.0000  1.8707  1.8949  0.0000  1.4512  0.0000  0.0000  0.0000  1.4497
      2px      1.0680  1.1622  0.0000  0.0000  1.4998  1.3958  0.0000  1.1594  0.0000  0.0000  0.0000  1.0917
      2pz      0.8967  1.1747  0.0000  0.0000  1.3493  1.5148  0.0000  1.1232  0.0000  0.0000  0.0000  1.1747
      2py      1.0622  1.1002  0.0000  0.0000  1.4755  1.4340  0.0000  1.1480  0.0000  0.0000  0.0000  1.1707
      *s      -0.1916 -0.4463 -0.3350 -0.3280  0.0270 -0.0627 -0.3206 -0.4488 -0.3293 -0.3294 -0.3253 -0.4464
      *px     -0.0768 -0.1762  0.0072  0.0209  0.0386 -0.0063  0.0261 -0.1755  0.0061  0.0210  0.0069 -0.1790
      *pz     -0.1029 -0.1860  0.0156  0.0055 -0.0098 -0.0058  0.0231 -0.1888  0.0048  0.0048  0.0170 -0.1857
      *py     -0.0787 -0.1776  0.0085  0.0042  0.0379 -0.0216  0.0294 -0.1760  0.0198  0.0050  0.0068 -0.1746
      *d2+     0.0371  0.0179  0.0000  0.0000  0.0007  0.0004  0.0000  0.0176  0.0000  0.0000  0.0000  0.0171
      *d1+     0.0324  0.0054  0.0000  0.0000  0.0031  0.0020  0.0000  0.0084  0.0000  0.0000  0.0000  0.0098
      *d0      0.0386  0.0123  0.0000  0.0000  0.0035  0.0010  0.0000  0.0139  0.0000  0.0000  0.0000  0.0121
      *d1-     0.0371  0.0126  0.0000  0.0000  0.0037  0.0027  0.0000  0.0117  0.0000  0.0000  0.0000  0.0085
      *d2-     0.0248  0.0087  0.0000  0.0000  0.0010  0.0026  0.0000  0.0054  0.0000  0.0000  0.0000  0.0093
      Total    6.1408  5.9614  0.9530  0.9692  8.3026  8.1527  0.8249  5.9537  0.9665  0.9665  0.9728  5.9618
 
      N-E     -0.1408  0.0386  0.0470  0.0308 -0.3026 -0.1527  0.1751  0.0463  0.0335  0.0335  0.0272  0.0382
 
                H13     H14     H15     H16   
      1s       1.2665  1.2692  1.2564  1.2691
      2s       0.0000  0.0000  0.0000  0.0000
      2px      0.0000  0.0000  0.0000  0.0000
      2pz      0.0000  0.0000  0.0000  0.0000
      2py      0.0000  0.0000  0.0000  0.0000
      *s      -0.3281 -0.3236 -0.3351 -0.3238
      *px      0.0054  0.0072  0.0063  0.0068
      *pz      0.0057  0.0163  0.0154  0.0164
      *py      0.0196  0.0072  0.0096  0.0075
      *d2+     0.0000  0.0000  0.0000  0.0000
      *d1+     0.0000  0.0000  0.0000  0.0000
      *d0      0.0000  0.0000  0.0000  0.0000
      *d1-     0.0000  0.0000  0.0000  0.0000
      *d2-     0.0000  0.0000  0.0000  0.0000
      Total    0.9691  0.9763  0.9525  0.9761
 
      N-E      0.0309  0.0237  0.0475  0.0239
 
      Total electronic charge=   50.000000
 
      Total            charge=   -0.000000
--
 
 

      Expectation values of various properties for root number:  3
      -----------------------------------------------------------
 
 
++    Molecular properties:
      ---------------------
 
      Charge (e):
                      =   -0.0000
      Dipole Moment (Debye):
      Origin of the operator (Ang)=    0.0000    0.0000    0.0000
                   X=  1.9146E-01               Y= -2.4142E-01               Z= -4.1605E-01           Total=  5.1773E-01
      Quadrupole Moment (Debye*Ang):
      Origin of the operator (Ang)=    0.0119    0.1021    0.0329
                  XX= -3.8125E+01              XY=  3.8898E-01              XZ=  2.0479E+00              YY= -3.8511E+01
                  YZ= -2.2367E+00              ZZ= -3.4964E+01
      In traceless form (Debye*Ang)
                  XX= -1.3879E+00              XY=  5.8347E-01              XZ=  3.0718E+00              YY= -1.9659E+00
                  YZ= -3.3551E+00              ZZ=  3.3538E+00
--
 
      Von Neumann Entropy (Root   4) =  0.93806
 

      Mulliken population analysis for root number:  4
      -----------------------------------------------
 
 
++    Molecular charges:
      ------------------
 
      Mulliken charges per centre and basis function type
      ---------------------------------------------------
 
                C1      C2      H3      H4      O1      O2      H7      C8      H9      H10     H11     C12   
      1s       2.0042  2.0039  1.2568  1.2667  2.0017  2.0008  1.0660  2.0039  1.2649  1.2649  1.2705  2.0039
      2s       1.3901  1.4490  0.0000  0.0000  1.8754  1.8974  0.0000  1.4529  0.0000  0.0000  0.0000  1.4490
      2px      1.0686  1.1623  0.0000  0.0000  1.2842  1.2150  0.0000  1.1600  0.0000  0.0000  0.0000  1.0864
      2pz      0.8994  1.1748  0.0000  0.0000  1.5839  1.7919  0.0000  1.1278  0.0000  0.0000  0.0000  1.1747
      2py      1.0622  1.0942  0.0000  0.0000  1.4415  1.3431  0.0000  1.1496  0.0000  0.0000  0.0000  1.1707
      *s      -0.1918 -0.4461 -0.3350 -0.3289  0.0267 -0.0643 -0.3175 -0.4490 -0.3289 -0.3288 -0.3248 -0.4462
      *px     -0.0790 -0.1760  0.0072  0.0209  0.0324 -0.0125  0.0241 -0.1754  0.0061  0.0210  0.0069 -0.1790
      *pz     -0.1036 -0.1861  0.0155  0.0055 -0.0013  0.0042  0.0260 -0.1879  0.0048  0.0047  0.0170 -0.1858
      *py     -0.0803 -0.1777  0.0085  0.0043  0.0398 -0.0248  0.0283 -0.1760  0.0198  0.0050  0.0069 -0.1744
      *d2+     0.0331  0.0179  0.0000  0.0000  0.0008  0.0004  0.0000  0.0175  0.0000  0.0000  0.0000  0.0171
      *d1+     0.0311  0.0053  0.0000  0.0000  0.0031  0.0020  0.0000  0.0085  0.0000  0.0000  0.0000  0.0098
      *d0      0.0429  0.0123  0.0000  0.0000  0.0039  0.0014  0.0000  0.0140  0.0000  0.0000  0.0000  0.0121
      *d1-     0.0370  0.0126  0.0000  0.0000  0.0037  0.0027  0.0000  0.0118  0.0000  0.0000  0.0000  0.0085
      *d2-     0.0254  0.0087  0.0000  0.0000  0.0009  0.0027  0.0000  0.0054  0.0000  0.0000  0.0000  0.0094
      Total    6.1394  5.9549  0.9530  0.9684  8.2968  8.1601  0.8270  5.9633  0.9668  0.9668  0.9765  5.9561
 
      N-E     -0.1394  0.0451  0.0470  0.0316 -0.2968 -0.1601  0.1730  0.0367  0.0332  0.0332  0.0235  0.0439
 
                H13     H14     H15     H16   
      1s       1.2666  1.2681  1.2565  1.2679
      2s       0.0000  0.0000  0.0000  0.0000
      2px      0.0000  0.0000  0.0000  0.0000
      2pz      0.0000  0.0000  0.0000  0.0000
      2py      0.0000  0.0000  0.0000  0.0000
      *s      -0.3289 -0.3237 -0.3351 -0.3238
      *px      0.0054  0.0071  0.0062  0.0068
      *pz      0.0057  0.0163  0.0154  0.0164
      *py      0.0196  0.0073  0.0096  0.0074
      *d2+     0.0000  0.0000  0.0000  0.0000
      *d1+     0.0000  0.0000  0.0000  0.0000
      *d0      0.0000  0.0000  0.0000  0.0000
      *d1-     0.0000  0.0000  0.0000  0.0000
      *d2-     0.0000  0.0000  0.0000  0.0000
      Total    0.9684  0.9751  0.9526  0.9747
 
      N-E      0.0316  0.0249  0.0474  0.0253
 
      Total electronic charge=   50.000000
 
      Total            charge=   -0.000000
--
 
 

      Expectation values of various properties for root number:  4
      -----------------------------------------------------------
 
 
++    Molecular properties:
      ---------------------
 
      Charge (e):
                      =   -0.0000
      Dipole Moment (Debye):
      Origin of the operator (Ang)=    0.0000    0.0000    0.0000
                   X=  1.8020E-01               Y= -2.2040E-01               Z= -4.7915E-01           Total=  5.5735E-01
      Quadrupole Moment (Debye*Ang):
      Origin of the operator (Ang)=    0.0119    0.1021    0.0329
                  XX= -3.7519E+01              XY=  1.0500E+00              XZ=  2.4004E+00              YY= -3.8188E+01
                  YZ= -2.8242E+00              ZZ= -3.6090E+01
      In traceless form (Debye*Ang)
                  XX= -3.7928E-01              XY=  1.5750E+00              XZ=  3.6005E+00              YY= -1.3837E+00
                  YZ= -4.2363E+00              ZZ=  1.7630E+00
--
 
 
      Input file to MOLDEN was generated!
 
 
      Input file to MOLDEN was generated!
 
 
      Input file to MOLDEN was generated!
 
 
      Input file to MOLDEN was generated!
 
 
      Input file to MOLDEN was generated!
 
      Average orbitals are written to the RASORB file
      Natural orbitals for root   1 are written to the RASORB.1 file
      Natural orbitals for root   2 are written to the RASORB.2 file
      Natural orbitals for root   3 are written to the RASORB.3 file
      Natural orbitals for root   4 are written to the RASORB.4 file
      Spin density orbitals for root   1 are written to the SPDORB.1 file
      Spin density orbitals for root   2 are written to the SPDORB.2 file
      Spin density orbitals for root   3 are written to the SPDORB.3 file
      Spin density orbitals for root   4 are written to the SPDORB.4 file
 
--- Stop Module: last_energy at Wed Jul  8 12:23:09 2026 /rc=_RC_ALL_IS_WELL_ ---
*** files: relaxed_scan_tbhp_casscf.rasscf.molden relaxed_scan_tbhp_casscf.rasscf.molden.1 relaxed_scan_tbhp_casscf.rasscf.molden.2 relaxed_scan_tbhp_casscf.rasscf.molden.3
           relaxed_scan_tbhp_casscf.rasscf.molden.4 relaxed_scan_tbhp_casscf.RasOrb relaxed_scan_tbhp_casscf.RasOrb.1 relaxed_scan_tbhp_casscf.RasOrb.2
           relaxed_scan_tbhp_casscf.RasOrb.3 relaxed_scan_tbhp_casscf.RasOrb.4 relaxed_scan_tbhp_casscf.SpdOrb.1 relaxed_scan_tbhp_casscf.SpdOrb.2 relaxed_scan_tbhp_casscf.SpdOrb.3
           relaxed_scan_tbhp_casscf.SpdOrb.4 xmldump
    saved to directory /vscratch/grp-cyberwksp21/hclifford/openmolcas/PES/runs_relaxed_s1/R_1p80
--- Module last_energy spent 38 seconds ---

>>> END DO

.##################.
.# Happy landing! #.
.##################.

    Timing: Wall=1122.64 User=879.58 System=179.41
