   This run of MOLCAS is using the pymolcas driver

                             OPE
                             OPE          NMOL  CASOP  ENMOLC A   SO
                 OPE        NMOLC        AS  OP EN  MO LC     AS  OP
                OPENM       OL CA        SO  PE NM  OL CA     SOP EN
                OP EN      MO   LC       AS  OP ENMOL  CASO   PENMOL
                OP  EN     MO   LC       AS  OP EN     MO     LC ASO
               OP   E  NMOL  C  AS       OP  EN MO     LC     AS  OP
               OP  E   NMO   LC AS        OPEN  MO     LCASOP EN   M
               O  PEN   MO  LCA  SO
            OPE   NMO   L   CAS    OP
        OPENMOL  CASOP     ENMOL   CASOPE
     OPENMOLCA   SOPENMOLCASOPEN   MOLCASOPE
    OPENMOLCAS   OP           EN   MOL    CAS
    OPENMOLCAS       OP  ENM        O     LCA
    OPENMOLCAS    OPEN  MOLCASO     P  E  NMO
    OPENMOLCAS     OP               E  N  MOL
    OPENMOLCA   SO           PENM   O  L  CAS    OPEN    MO    LCAS
    OPENMOLCA   SOP           ENM   O  L  CAS   OP  EN  MOLC  AS   O
    OPENMOLCA   SOPE           NM      O  LCA   S      OP  EN MO
    OPENMOLC                AS         O  PEN   M      OL  CA  SOPE
    OPENMO        LCASOPE  NMOL        C  ASO   P      ENMOLC     AS
    OPE     NMO      LCA  SO     P     E   NM   OL  CA SO  PE N   MO
          OPENMOLCA            SOPE   NMO        LCAS  O    P  ENMO
     OPENMOLCASOPENMOLCASOPENMOLCASOPENMOLCA
        OPENMOLCASOPENMOLCASOPENMOLCASOPE
            OPENMOLCASOPENMOLCASOPENM
               OPENMOLCASOPENMOLCA        version: v23.10 ?
                   OPENMOLCASO
                       OPE                tag:

 OpenMolcas is free software; you can redistribute it and/or modify it
 under the terms of the GNU Lesser General Public License version 2.1.
 OpenMolcas is distributed in the hope that it will be useful, but it
 is provided "as is" and without any express or implied warranties.
 For more details see the full text of the license in the file
 LICENSE or in <http://www.gnu.org/licenses/>.

                 Copyright (C) The OpenMolcas Authors
           For the author list and the recommended citation,
                   consult the file CONTRIBUTORS.md

           *************************************************
           * pymolcas version py2.25                       *
           *   build 2b27fa14244bdc32cb1957e6230cd793      *
           *   (after the EMIL interpreter by V. Veryazov) *
           *************************************************

configuration info
------------------
Host name: cpn-h22-29.core.ccr.buffalo.edu (Linux)
C Compiler ID: Intel
C flags: -O2 -xCore-AVX512 -ftz -fp-speculation=safe -fp-model source -std=gnu99 -gcc-sys -qopenmp
Fortran Compiler ID: Intel
Fortran flags: -O2 -xCore-AVX512 -ftz -fp-speculation=safe -fp-model source  -fpp -i8 -heap-arrays -qopenmp
Definitions: _MOLCAS_;_I8_;_LINUX_;_MOLCAS_MPP_;_SCALAPACK_;_GA_
Parallel: ON (GA=ON)


   -----------------------------------------------------------------------------------------------------------------------------------------------------
  |
  |           Project: relaxed_scan_tbhp_casscf
  |    Submitted from: /vscratch/grp-cyberwksp21/hclifford/openmolcas/PES/runs_relaxed_s1/R_2p80
  |      Scratch area: /vscratch/grp-cyberwksp21/hclifford/openmolcas/PES/runs_relaxed_s1/R_2p80/molcas_scratch_R_2p80/relaxed_scan_tbhp_casscf
  |   Save outputs to: /vscratch/grp-cyberwksp21/hclifford/openmolcas/PES/runs_relaxed_s1/R_2p80
  |            Molcas: /cvmfs/soft.ccr.buffalo.edu/versions/2023.01/easybuild/software/avx512/MPI/intel/2022.0.1/impi/2021.5.0/openmolcas/23.10
  |
  | Scratch area is empty
  |
  |    MOLCAS_DRIVER = /cvmfs/soft.ccr.buffalo.edu/versions/2023.01/easybuild/software/avx512/MPI/intel/2022.0.1/impi/2021.5.0/openmolcas/23.10/pymolcas
  |    MOLCAS_MOLDEN = ON
  |    MOLCAS_NPROCS = 1
  |     MOLCAS_PRINT = NORMAL
  |    MOLCAS_SOURCE = /cvmfs/soft.ccr.buffalo.edu/versions/2023.01/easybuild/software/avx512/MPI/intel/2022.0.1/impi/2021.5.0/openmolcas/23.10
  | MOLCAS_STRUCTURE = 0
  |
   -----------------------------------------------------------------------------------------------------------------------------------------------------

++ ---------   Input file   ---------

&GATEWAY
  Coord = tbhp.xyz
  Basis = cc-pVDZ
  Group = NoSymm
  Constraints
    rOO = Bond O1 O2
  Values
    rOO = 2.80 Angstrom
  End of Constraints

>>> DO WHILE

  &SEWARD

  &RASSCF
    Spin = 1
    NActEl = 6 0 0
    Inactive = 22
    Ras2 = 4
    CiRoot = 4 4 1
    RlxRoot = 2
    LumOrb
    LevShift = 1.0

  &ALASKA

  &SLAPAF

>>> END DO

-- ----------------------------------

--- Start Module: gateway at Wed Jul  8 14:20:16 2026 ---
 
()()()()()()()()()()()()()()()()()()()()()()()()()()()()()()()()()()()()()()()()()()()()()()()()()()

                                              &GATEWAY

                       only a single process is used, running in SERIAL mode
                        available to each process: 12 GB of memory, 1 thread
                                            pid: 237904
()()()()()()()()()()()()()()()()()()()()()()()()()()()()()()()()()()()()()()()()()()()()()()()()()()
 
 
++    Symmetry information:
      ---------------------
 
                    Character Table for C1 
 
                             E  
                    a        1  x, y, xy, Rz, z, xz, Ry, yz, Rx, I
--
 
 
++    Basis set information:
      ----------------------
 
 
      Basis set label: C.CC-PVDZ.........
 
      Electronic valence basis set:
      ------------------
      Associated Effective Charge   6.000000 au
      Associated Actual Charge      6.000000 au
      Nuclear Model: Point charge
 
      Shell  nPrim  nBasis  Cartesian Spherical Contaminant
         s       9       3        X                  
         p       4       2        X                  
         d       1       1                 X         
 
 
      Basis set label: H.CC-PVDZ.........
 
      Electronic valence basis set:
      ------------------
      Associated Effective Charge   1.000000 au
      Associated Actual Charge      1.000000 au
      Nuclear Model: Point charge
 
      Shell  nPrim  nBasis  Cartesian Spherical Contaminant
         s       4       2        X                  
         p       1       1        X                  
 
 
      Basis set label: O.CC-PVDZ.........
 
      Electronic valence basis set:
      ------------------
      Associated Effective Charge   8.000000 au
      Associated Actual Charge      8.000000 au
      Nuclear Model: Point charge
 
      Shell  nPrim  nBasis  Cartesian Spherical Contaminant
         s       9       3        X                  
         p       4       2        X                  
         d       1       1                 X         
 
 
      Basis set label: H.CC-PVDZ.........
 
      Electronic valence basis set:
      ------------------
      Associated Effective Charge   1.000000 au
      Associated Actual Charge      1.000000 au
      Nuclear Model: Point charge
 
      Shell  nPrim  nBasis  Cartesian Spherical Contaminant
         s       4       2        X                  
         p       1       1        X                  
 
 
      Basis set label: C.CC-PVDZ.........
 
      Electronic valence basis set:
      ------------------
      Associated Effective Charge   6.000000 au
      Associated Actual Charge      6.000000 au
      Nuclear Model: Point charge
 
      Shell  nPrim  nBasis  Cartesian Spherical Contaminant
         s       9       3        X                  
         p       4       2        X                  
         d       1       1                 X         
 
 
      Basis set label: H.CC-PVDZ.........
 
      Electronic valence basis set:
      ------------------
      Associated Effective Charge   1.000000 au
      Associated Actual Charge      1.000000 au
      Nuclear Model: Point charge
 
      Shell  nPrim  nBasis  Cartesian Spherical Contaminant
         s       4       2        X                  
         p       1       1        X                  
 
 
      Basis set label: C.CC-PVDZ.........
 
      Electronic valence basis set:
      ------------------
      Associated Effective Charge   6.000000 au
      Associated Actual Charge      6.000000 au
      Nuclear Model: Point charge
 
      Shell  nPrim  nBasis  Cartesian Spherical Contaminant
         s       9       3        X                  
         p       4       2        X                  
         d       1       1                 X         
 
 
      Basis set label: H.CC-PVDZ.........
 
      Electronic valence basis set:
      ------------------
      Associated Effective Charge   1.000000 au
      Associated Actual Charge      1.000000 au
      Nuclear Model: Point charge
 
      Shell  nPrim  nBasis  Cartesian Spherical Contaminant
         s       4       2        X                  
         p       1       1        X                  
--
 
 
++    Molecular structure info:
      -------------------------
 
                    ************************************************ 
                    **** Cartesian Coordinates / Bohr, Angstrom **** 
                    ************************************************ 
 
     Center  Label                x              y              z                     x              y              z
        1      C1              -0.021542       0.141236      -0.863799             -0.011400       0.074739      -0.457103
        2      C2               0.831168       2.894138      -0.976131              0.439835       1.531512      -0.516547
        3      H3               0.063091       3.973818       0.597379              0.033386       2.102854       0.316120
        4      H4               2.889618       3.006368      -0.897928              1.529120       1.590901      -0.475163
        5      O1               1.048443      -1.087412       1.282909              0.554812      -0.575434       0.678886
        6      O2              -0.861567       1.339822       5.579133             -0.455922       0.709003       2.952350
        7      H7               1.263745      -0.351457       4.767996              0.668745      -0.185983       2.523115
        8      C8               1.105388      -1.375518      -3.048072              0.584946      -0.727893      -1.612970
        9      H9               0.556259      -3.358152      -2.914267              0.294360      -1.777058      -1.542164
       10      H10              3.164481      -1.268188      -3.022044              1.674571      -0.671096      -1.599197
       11      H11              0.434286      -0.629140      -4.848329              0.229814      -0.332927      -2.565625
       12      C12             -2.895285      -0.095819      -0.822797             -1.532119      -0.050705      -0.435405
       13      H13             -3.445010      -2.076354      -0.655641             -1.823021      -1.098759      -0.346950
       14      H14             -3.697104       0.662660      -2.566952             -1.956423       0.350665      -1.358373
       15      H15             -3.702320       0.934206       0.764700             -1.959183       0.494360       0.404662
       16      H16              0.198038       3.766686      -2.736247              0.104797       1.993244      -1.447959
 
                    ************************************************* 
                    **** InterNuclear Distances / Bohr, Angstrom **** 
                    ************************************************* 
 
     Atom centers         Bohr        Angstrom
    3 H3        2 C2      2.057082        1.088561
   15 H15      12 C12     2.057280        1.088666
   11 H11       8 C8      2.061161        1.090720
    9 H9        8 C8      2.061622        1.090963
   10 H10       8 C8      2.062053        1.091191
   13 H13      12 C12     2.062197        1.091268
    4 H4        2 C2      2.062990        1.091687
   14 H14      12 C12     2.064025        1.092235
   16 H16       2 C2    
    5 O1        1 C1      2.694958        1.426110
    7 H7        6 O2      2.834664        1.500040
   12 C12       1 C1      2.883795        1.526039
    2 C2        1 C1      2.884130        1.526216
    8 C8        1 C1      2.888177        1.528357
   15 H15      13 H13     3.338719        1.766774
    4 H4        3 H3      3.340833        1.767893
   15 H15      14 H14     3.342704        1.768883
   16 H16       3 H3      3.342780        1.768923
   10 H10       9 H9      3.344008        1.769573
   11 H11      10 H10     3.346292        1.770781
   16 H16       4 H4      3.346954        1.771132
   11 H11       9 H9      3.347086        1.771202
   14 H14      13 H13     3.349457        1.772456
    7 H7        5 O1      3.568447        1.888341
   11 H11       1 C1      4.083839        2.161075
   13 H13       1 C1      4.084258        2.161296
   14 H14       1 C1      4.084405        2.161374
    4 H4        1 C1      4.084728        2.161545
   16 H16       1 C1      4.086339        2.162397
    9 H9        1 C1      4.096827        2.167948
   10 H10       1 C1      4.098200        2.168674
   15 H15       1 C1      4.102308        2.170848
    3 H3        1 C1      4.102547        2.170974
    8 C8        5 O1      4.340927        2.297119
   12 C12       5 O1      4.579328        2.423276
    5 O1        2 C2      4.582926        2.425180
   12 C12       8 C8      4.753406        2.515394
    8 C8        2 C2      4.753746        2.515574
   13 H13       9 H9      4.770174        2.524267
   12 C12       2 C2      4.780148        2.529545
   10 H10       4 H4      4.781134        2.530067
    9 H9        5 O1      4.797374        2.538661
   10 H10       5 O1      4.800304        2.540212
   15 H15       3 H3      4.842061        2.562308
   16 H16      11 H11     4.882622        2.583772
   14 H14      11 H11     4.893037        2.589284
   16 H16      14 H14     4.983550        2.637181
    5 O1        4 H4      4.990492        2.640855
   13 H13       5 O1      4.992705        2.642026
   13 H13       8 C8      5.188547        2.745661
   15 H15       5 O1      5.188952        2.745875
   12 C12       9 H9      5.189434        2.746130
   10 H10       2 C2      5.191827        2.747397
    8 C8        4 H4      5.196876        2.750068
    5 O1        3 H3      5.201626        2.752582
   12 C12       3 H3      5.227890        2.766480
   16 H16       8 C8      5.230945        2.768097
   15 H15       2 C2      5.236825        2.771209
   14 H14       8 C8      5.239235        2.772484
   11 H11       2 C2      5.250231        2.778302
   12 C12      11 H11     5.251227        2.778830
    6 O2        5 O1      5.291233        2.800000
   14 H14       2 C2      5.292963        2.800915
   16 H16      12 C12     5.305553        2.807577
   15 H15       6 O2      5.604745        2.965903
--
 
 
            Nuclear Potential Energy            246.39703287 au
 
--- Stop Module: gateway at Wed Jul  8 14:20:16 2026 /rc=_RC_ALL_IS_WELL_ ---
*** files: xmldump
    saved to directory /vscratch/grp-cyberwksp21/hclifford/openmolcas/PES/runs_relaxed_s1/R_2p80

--- Start Module: seward at Wed Jul  8 14:20:16 2026 ---
 
()()()()()()()()()()()()()()()()()()()()()()()()()()()()()()()()()()()()()()()()()()()()()()()()()()

                                              &SEWARD

                       only a single process is used, running in SERIAL mode
                        available to each process: 12 GB of memory, 1 thread
                                            pid: 237908
()()()()()()()()()()()()()()()()()()()()()()()()()()()()()()()()()()()()()()()()()()()()()()()()()()
 
               SEWARD will generate:
                  Multipole Moment integrals up to order  2
                  Kinetic Energy integrals
                  Nuclear Attraction integrals (point charge)
                  One-Electron Hamiltonian integrals
                  Velocity integrals
                  Orbital angular momentum around (-0.1229  0.3054  0.3289 )
                  Velocity quadrupole around (-0.1229  0.3054  0.3289 )
                  Two-Electron Repulsion integrals
 
                   Integrals are discarded if absolute value <: 0.10E-13
                   Integral cutoff threshold is set to       <: 0.10E-15
 
            Nuclear Potential Energy            246.39703287 au
 
 
      Basis set specifications :
      Symmetry species         a  
      Basis functions          134
 
 
      Input file to MOLDEN was generated!
 
--- Stop Module: seward at Wed Jul  8 14:20:34 2026 /rc=_RC_ALL_IS_WELL_ ---
*** files: relaxed_scan_tbhp_casscf.GssOrb relaxed_scan_tbhp_casscf.guessorb.h5 relaxed_scan_tbhp_casscf.guessorb.molden xmldump
    saved to directory /vscratch/grp-cyberwksp21/hclifford/openmolcas/PES/runs_relaxed_s1/R_2p80
--- Module seward spent 17 seconds ---

*** symbolic link created: INPORB -> relaxed_scan_tbhp_casscf.GssOrb
--- Start Module: rasscf at Wed Jul  8 14:20:34 2026 ---
 
()()()()()()()()()()()()()()()()()()()()()()()()()()()()()()()()()()()()()()()()()()()()()()()()()()

                                              &RASSCF

                       only a single process is used, running in SERIAL mode
                        available to each process: 12 GB of memory, 1 thread
                                            pid: 237912
()()()()()()()()()()()()()()()()()()()()()()()()()()()()()()()()()()()()()()()()()()()()()()()()()()
 
 
      Header of the ONEINT file:
      --------------------------
      
      Integrals generated by Gateway/Seward, Wed Jul  8 14:20:17 2026
 
 
      OrdInt status: non-squared
 
 
      Cartesian coordinates in Angstrom:
      -----------------------------------------------------
      No.  Label        X            Y            Z        
      -----------------------------------------------------
       1   C1        -0.01139969   0.07473874  -0.45710275
       2   C2         0.43983524   1.53151203  -0.51654652
       3   H3         0.03338615   2.10285377   0.31611957
       4   H4         1.52912019   1.59090129  -0.47516326
       5   O1         0.55481218  -0.57543356   0.67888606
       6   O2        -0.45592181   0.70900335   2.95235007
       7   H7         0.66874488  -0.18598325   2.52311476
       8   C8         0.58494633  -0.72789299  -1.61297035
       9   H9         0.29435984  -1.77705775  -1.54216375
      10   H10        1.67457144  -0.67109611  -1.59919702
      11   H11        0.22981418  -0.33292659  -2.56562545
      12   C12       -1.53211881  -0.05070542  -0.43540531
      13   H13       -1.82302072  -1.09875916  -0.34695030
      14   H14       -1.95642321   0.35066475  -1.35837253
      15   H15       -1.95918318   0.49436032   0.40466163
      16   H16        0.10479738   1.99324446  -1.44795932
      -----------------------------------------------------
      Nuclear repulsion energy =  246.39703287
 
++    Wave function specifications:
      -----------------------------
 
      Number of closed shell electrons          44
      Number of electrons in active shells       6
      Max number of holes in RAS1 space          0
      Max nr of electrons in RAS3 space          0
      Number of inactive orbitals               22
      Number of active orbitals                  4
      Number of secondary orbitals             108
      Spin quantum number                      0.0
      State symmetry                             1
--
 
++    Orbital specifications:
      -----------------------
 
      Symmetry species                           1
                                                 a
      Frozen orbitals                            0
      Inactive orbitals                         22
      Active orbitals                            4
      RAS1 orbitals                              0
      RAS2 orbitals                              4
      RAS3 orbitals                              0
      Secondary orbitals                       108
      Deleted orbitals                           0
      Number of basis functions                134
--
 
++    CI expansion specifications:
      ----------------------------
 
      Number of CSFs                            10
      Number of determinants                    10
      Number of root(s) required                 4
      Root chosen for geometry opt.              2
      CI roots used                              1     2     3     4
      weights                                0.250 0.250 0.250 0.250
      highest root included in the CI            4
      max. size of the explicit Hamiltonian     10
--
 
++    Optimization specifications:
      ----------------------------
 
      RASSCF algorithm: Conventional
      Maximum number of macro iterations       200
      Maximum number of SX iterations          100
      Threshold for RASSCF energy            0.100E-07
      Threshold for max MO rotation          0.100E+00
      Threshold for max BLB element          0.100E-03
      Level shift parameter                  0.100E+01
      Make Quasi-Newton update
--
 
      The MO-coefficients are taken from the file:
      INPORB                                                                                                                                                                                                                                                          
      Title:Guess orbitals                                                                 
 
      Total molecular charge    0.00
 
      ************************************************************************************************************************
      *                                                                                                                      *
      *                                            Wave function control section                                             *
      *                                                                                                                      *
      ************************************************************************************************************************
 
 
                                         RASSCF iterations: Energy and convergence statistics
                                         ----------------------------------------------------
 
      Iter CI   SX   CI       RASSCF       Energy    max ROT     max BLB   max BLB  Level Ln srch  Step   QN   Walltime
          iter iter root      energy       change     param      element    value   shift minimum  type update hh:mm:ss
 Nr of preliminary CI iterations:   1
        1   1  100    0  -305.30344015    0.00E+00   0.11E+00*  19 106 1 -0.35E+00*  1.78   0.00    SX    NO    0:00:03
        2   1  100    0  -306.10831354   -0.80E+00*  0.82E-01   10  39 1  0.15E+00*  1.41   0.00    SX    NO    0:00:02
        3   1   70    0  -306.36052810   -0.25E+00*  0.55E-01   10  39 1  0.80E-01*  1.20   0.00    SX    NO    0:00:01
        4   1   29    0  -306.44849486   -0.88E-01* -0.50E-01   18  24 1 -0.50E-01*  1.10   0.00    SX    NO    0:00:01
        5   1   59    0  -306.48878748   -0.40E-01* -0.53E-01   19 106 1  0.35E-01*  1.05   2.50    LS   YES    0:00:01
        6   1   35    0  -306.51531782   -0.27E-01* -0.41E-01   19 106 1  0.23E-01*  1.00   1.97    LS   YES    0:00:01
        7   1   11    0  -306.52354027   -0.82E-02* -0.50E-01   20  27 1  0.25E-01*  0.98   1.29    QN   YES    0:00:01
        8   1   12    0  -306.53200489   -0.85E-02* -0.13E+00*  20  27 1  0.25E-01*  0.96   2.50    QN   YES    0:00:01
        9   1   17    0  -306.54543348   -0.13E-01* -0.93E-01   20  27 1  0.24E-01*  0.93   2.08    LS   YES    0:00:01
       10   1   17    0  -306.55011493   -0.47E-02* -0.99E-01   20  27 1  0.23E-01*  0.92   1.49    QN   YES    0:00:01
       11   1   13    0  -306.55649665   -0.64E-02* -0.34E+00*  16  27 1 -0.21E-01*  0.89   2.50    QN   YES    0:00:01
       12   1   34    0  -306.60365314   -0.47E-01* -0.11E+00*  19  23 1  0.67E-01*  0.84   1.44    SX   YES    0:00:01
       13   1  100    0  -306.63579322   -0.32E-01* -0.31E+00*  19  23 1  0.65E-01*  0.85   2.47    QN   YES    0:00:02
       14   1   62    0  -306.69255969   -0.57E-01* -0.12E+00*  24  27 1 -0.40E-01*  0.85   0.94    QN   YES    0:00:01
       15   1   51    0  -306.68335242    0.92E-02* -0.48E-01   24  27 1 -0.38E-01*  0.87  -0.05    SX   YES    0:00:01
       16   1   26    0  -306.70561933   -0.22E-01* -0.19E+00*  24  27 1 -0.34E-01*  0.88   2.50    QN   YES    0:00:01
       17   1   48    0  -306.76412696   -0.59E-01* -0.16E+00*  20  24 1  0.29E-01*  0.89   1.67    QN   YES    0:00:01
       18   1   40    0  -306.78874491   -0.25E-01* -0.95E-01   16  26 1 -0.22E-01*  0.90   1.41    QN   YES    0:00:01
       19   1    9    0  -306.79930164   -0.11E-01* -0.10E+00*   8  28 1 -0.18E-01*  0.90   1.96    QN   YES    0:00:01
       20   1   11    0  -306.80913649   -0.98E-02* -0.91E-01   16  24 1 -0.18E-01*  0.89   1.84    QN   YES    0:00:01
       21   1   11    0  -306.81585535   -0.67E-02* -0.81E-01   16  24 1 -0.13E-01*  0.88   1.82    QN   YES    0:00:01
       22   1    9    0  -306.82010599   -0.43E-02*  0.78E-01   24  27 1  0.10E-01*  0.88   1.85    QN   YES    0:00:01
       23   1    9    0  -306.82299124   -0.29E-02*  0.70E-01   24  27 1  0.10E-01*  0.87   1.85    QN   YES    0:00:01
       24   1    8    0  -306.82499330   -0.20E-02* -0.48E-01   24  27 1  0.89E-02*  0.87   1.76    QN   YES    0:00:01
       25   1    8    0  -306.82612466   -0.11E-02* -0.26E-01   24  27 1  0.60E-02*  0.87   1.58    LS   YES    0:00:01
       26   1    8    0  -306.82630485   -0.18E-03*  0.65E-02   24  27 1  0.45E-02*  0.87   1.10    QN   YES    0:00:01
       27   1    8    0  -306.82654810   -0.24E-03*  0.62E-02   24  27 1  0.30E-02*  0.87   1.98    LS   YES    0:00:01
       28   1    8    0  -306.82662781   -0.80E-04*  0.31E-02   24  27 1  0.16E-02*  0.87   1.04    QN   YES    0:00:01
       29   1    7    0  -306.82667194   -0.44E-04*  0.44E-02   24  27 1  0.12E-02*  0.87   2.44    LS   YES    0:00:01
       30   1    7    0  -306.82669562   -0.24E-04* -0.22E-02   24 110 1 -0.10E-02*  0.87   1.02    QN   YES    0:00:01
       31   1    7    0  -306.82670797   -0.12E-04* -0.26E-02   23  27 1 -0.63E-03*  0.87   1.65    QN   YES    0:00:01
       32   1    6    0  -306.82671393   -0.60E-05* -0.54E-03   23  27 1 -0.42E-03*  0.87   1.23    QN   YES    0:00:01
       33   1    6    0  -306.82671542   -0.15E-05* -0.45E-03   23  27 1 -0.26E-03*  0.87   1.51    QN   YES    0:00:01
       34   1    6    0  -306.82671604   -0.62E-06*  0.28E-03   23  27 1 -0.14E-03*  0.87   1.31    QN   YES    0:00:01
       35   1    6    0  -306.82671623   -0.19E-06*  0.25E-03   23  27 1 -0.75E-04   0.87   1.70    QN   YES    0:00:01
       36   1    5    0  -306.82671634   -0.11E-06*  0.13E-03   20  27 1 -0.50E-04   0.87   1.44    QN   YES    0:00:01
       37   1    5    0  -306.82671638   -0.39E-07* -0.68E-04   20  27 1 -0.30E-04   0.87   1.51    QN   YES    0:00:01
       38   1    5    0  -306.82671639   -0.15E-07* -0.44E-04   22  28 1 -0.16E-04   0.87   1.41    QN   YES    0:00:01
       39   1    5    0  -306.82671640   -0.45E-08   0.35E-04   20  23 1 -0.90E-05   0.87   1.46    QN   YES    0:00:01
      Convergence after 39 iterations
       40   1    5    0  -306.82671640   -0.16E-08   0.35E-04   20  23 1 -0.66E-05   0.87   1.46    QN   YES    0:00:01
 
      ************************************************************************************************************************
                                                      Wave function printout:
                       occupation of active orbitals, and spin coupling of open shells (u,d: Spin up or down)
      ************************************************************************************************************************
 
      Note: transformation to natural orbitals
      has been made, which may change the order of the CSFs.
 
      printout of CI-coefficients larger than  0.05 for root  1
      energy=    -306.830172
      conf/sym  1111     Coeff  Weight
             1  2220  -0.66392 0.44079
             2  22ud  -0.31058 0.09646
             5  2ud2   0.14323 0.02052
             6  u22d   0.15127 0.02288
             8  2022   0.58057 0.33706
             9  ud22  -0.28405 0.08068
 
      printout of CI-coefficients larger than  0.05 for root  2
      energy=    -306.829366
      conf/sym  1111     Coeff  Weight
             1  2220  -0.32971 0.10871
             2  22ud   0.41927 0.17579
             3  2202   0.14590 0.02129
             5  2ud2  -0.45917 0.21084
             6  u22d  -0.48446 0.23470
             8  2022   0.28791 0.08289
             9  ud22   0.38310 0.14677
            10  0222  -0.13791 0.01902
 
      printout of CI-coefficients larger than  0.05 for root  3
      energy=    -306.824148
      conf/sym  1111     Coeff  Weight
             1  2220  -0.09033 0.00816
             2  22ud   0.40069 0.16056
             3  2202   0.34042 0.11589
             5  2ud2   0.47010 0.22100
             6  u22d   0.49543 0.24545
             8  2022   0.07798 0.00608
             9  ud22   0.36707 0.13474
            10  0222  -0.32883 0.10813
 
      printout of CI-coefficients larger than  0.05 for root  4
      energy=    -306.823180
      conf/sym  1111     Coeff  Weight
             1  2220  -0.09535 0.00909
             2  22ud   0.33402 0.11157
             3  2202  -0.61487 0.37806
             5  2ud2   0.14547 0.02116
             6  u22d   0.15314 0.02345
             8  2022   0.08474 0.00718
             9  ud22   0.30568 0.09344
            10  0222   0.59669 0.35604
 
      Natural orbitals and occupation numbers for root  1
      sym 1:   1.999315   1.121045   1.998605   0.881035
 
      Natural orbitals and occupation numbers for root  2
      sym 1:   1.999426   1.999258   1.051716   0.949600
 
      Natural orbitals and occupation numbers for root  3
      sym 1:   0.998671   1.999153   1.003090   1.999085
 
      Natural orbitals and occupation numbers for root  4
      sym 1:   1.041228   1.999164   0.960461   1.999147
 
      ************************************************************************************************************************
      *                                                                                                                      *
      *                                                    Final results                                                     *
      *                                                                                                                      *
      ************************************************************************************************************************
 
 
++    Wave function specifications:
      -----------------------------
 
      Number of closed shell electrons          44
      Number of electrons in active shells       6
      Max number of holes in RAS1 space          0
      Max nr of electrons in RAS3 space          0
      Number of inactive orbitals               22
      Number of active orbitals                  4
      Number of secondary orbitals             108
      Spin quantum number                      0.0
      State symmetry                             1
--
 
++    Orbital specifications:
      -----------------------
 
      Symmetry species                           1
                                                 a
      Frozen orbitals                            0
      Inactive orbitals                         22
      Active orbitals                            4
      RAS1 orbitals                              0
      RAS2 orbitals                              4
      RAS3 orbitals                              0
      Secondary orbitals                       108
      Deleted orbitals                           0
      Number of basis functions                134
--
 
++    CI expansion specifications:
      ----------------------------
 
      Number of CSFs                            10
      Number of determinants                    10
      Number of root(s) required                 4
      CI roots used                              1     2     3     4
      weights                                0.250 0.250 0.250 0.250
      highest root included in the CI            4
      Root passed to geometry opt.               2
--
 
++    Final optimization conditions:
      ------------------------------
 
      Average CI energy                            -306.82671640
      RASSCF energy for state  2                   -306.82936609
      Super-CI energy                                -0.00000000
      RASSCF energy change                           -0.00000000
      Max change in MO coefficients              -0.233E-04
      Max non-diagonal density matrix element     0.350E-04
      Maximum BLB matrix element                 -0.657E-05
      (orbital pair  20,  23 in symmetry   1)
      Norm of electronic gradient            0.556E-01
--
 
 
      Final state energy(ies):
      ------------------------
 
::    RASSCF root number  1 Total energy:   -306.83017168
::    RASSCF root number  2 Total energy:   -306.82936609
::    RASSCF root number  3 Total energy:   -306.82414819
::    RASSCF root number  4 Total energy:   -306.82317964
 
++    Molecular orbitals:
      -------------------
 
      Pseudonatural active orbitals and approximate occupation numbers
 
 
 
 
      Molecular orbitals for symmetry species 1: a  
 
 
      Orbital                 1         2         3         4         5         6         7         8         9        10
      Energy           -20.6119  -20.5960  -11.3018  -11.2328  -11.2321  -11.2305   -1.3416   -1.1836   -1.0679   -0.9526
      Occ. No.           2.0000    2.0000    2.0000    2.0000    2.0000    2.0000    2.0000    2.0000    2.0000    2.0000
 
     1 C1     1s        -0.0002    0.0000   -1.0020    0.0043   -0.0044   -0.0043   -0.0102    0.0010   -0.0171   -0.0002
     2 C1     2s        -0.0008    0.0000   -0.0103   -0.0003    0.0004    0.0004    0.3477   -0.0241    0.4267   -0.0013
     3 C1     *s         0.0044   -0.0003    0.0171   -0.0005    0.0002    0.0005   -0.1246   -0.0032    0.0023    0.0005
     4 C1     2px        0.0002    0.0000   -0.0005   -0.0001    0.0001   -0.0003    0.0630   -0.0039   -0.0574   -0.0960
     5 C1     *px        0.0012   -0.0002    0.0001   -0.0004    0.0003   -0.0006   -0.0287   -0.0021    0.0066    0.0005
     6 C1     2py       -0.0002   -0.0000    0.0005   -0.0003   -0.0002   -0.0000   -0.0722    0.0045    0.0667   -0.2278
     7 C1     *py       -0.0014    0.0004   -0.0001   -0.0006   -0.0004   -0.0003    0.0307    0.0056   -0.0055    0.0130
     8 C1     2pz        0.0004   -0.0001   -0.0008    0.0000   -0.0003   -0.0000    0.1193   -0.0045   -0.1296   -0.0706
     9 C1     *pz        0.0020    0.0004   -0.0006   -0.0005   -0.0002    0.0005   -0.0587    0.0061    0.0129    0.0064
    10 C1     *d2-      -0.0000    0.0000    0.0000    0.0001    0.0001   -0.0000   -0.0088    0.0004    0.0065   -0.0123
    11 C1     *d1-      -0.0001   -0.0000    0.0001   -0.0000   -0.0001   -0.0001   -0.0159    0.0007    0.0132    0.0077
    12 C1     *d0        0.0001   -0.0000   -0.0000   -0.0001   -0.0000    0.0001    0.0114   -0.0008   -0.0126    0.0081
    13 C1     *d1+       0.0001    0.0000   -0.0001   -0.0001    0.0001    0.0000    0.0139   -0.0006   -0.0117   -0.0064
    14 C1     *d2+       0.0000    0.0000    0.0000   -0.0001    0.0000   -0.0001   -0.0013    0.0000    0.0007    0.0188
    15 C2     1s        -0.0000    0.0000   -0.0043   -1.0018    0.0124    0.0036   -0.0021    0.0005   -0.0115    0.0192
    16 C2     2s        -0.0001    0.0001    0.0003   -0.0104   -0.0005   -0.0006    0.0820   -0.0054    0.3645   -0.6161
    17 C2     *s        -0.0002   -0.0004   -0.0035    0.0123    0.0012    0.0013   -0.0309   -0.0050   -0.1412    0.1866
    18 C2     2px        0.0000    0.0000    0.0001   -0.0000   -0.0001    0.0002   -0.0075    0.0003   -0.0323   -0.0046
    19 C2     *px       -0.0003    0.0002    0.0003   -0.0003    0.0003   -0.0008    0.0037    0.0037    0.0166    0.0003
    20 C2     2py        0.0002    0.0000    0.0003   -0.0001    0.0001    0.0000   -0.0436    0.0038   -0.0740    0.0005
    21 C2     *py        0.0001   -0.0000    0.0014   -0.0008   -0.0007   -0.0003    0.0151   -0.0049    0.0378   -0.0155
    22 C2     2pz       -0.0001    0.0000    0.0000    0.0002    0.0001    0.0000    0.0099    0.0005   -0.0139   -0.0112
    23 C2     *pz       -0.0004   -0.0002   -0.0002   -0.0002   -0.0006   -0.0001    0.0011   -0.0027    0.0043    0.0096
    24 C2     *d2-       0.0000   -0.0000    0.0000    0.0001   -0.0000    0.0001    0.0020   -0.0002    0.0058   -0.0011
    25 C2     *d1-       0.0001    0.0000   -0.0001   -0.0000    0.0001    0.0000   -0.0023    0.0002    0.0013    0.0008
    26 C2     *d0        0.0000   -0.0000   -0.0001   -0.0001    0.0000   -0.0001   -0.0040   -0.0001   -0.0048    0.0012
    27 C2     *d1+       0.0001    0.0000   -0.0000   -0.0000   -0.0001    0.0000   -0.0021    0.0003    0.0006    0.0003
    28 C2     *d2+       0.0001    0.0000   -0.0001   -0.0002   -0.0001    0.0001   -0.0061    0.0003   -0.0063    0.0013
    29 H3     1s         0.0001    0.0000    0.0004   -0.0002   -0.0000   -0.0002    0.0187    0.0000    0.1191   -0.2620
    30 H3     *s        -0.0000    0.0003   -0.0002   -0.0011    0.0004   -0.0001   -0.0105    0.0095   -0.0530    0.1159
    31 H3     *px        0.0000    0.0000    0.0000    0.0002   -0.0000    0.0001    0.0008    0.0002    0.0032   -0.0085
    32 H3     *py        0.0001   -0.0000    0.0000   -0.0002    0.0000    0.0000   -0.0017   -0.0004   -0.0066    0.0104
    33 H3     *pz       -0.0000   -0.0000   -0.0000   -0.0003    0.0000    0.0000   -0.0010   -0.0001   -0.0084    0.0163
    34 H4     1s        -0.0000    0.0000    0.0004   -0.0002   -0.0002   -0.0000    0.0219   -0.0022    0.1191   -0.2618
    35 H4     *s         0.0001   -0.0001   -0.0002   -0.0011   -0.0001    0.0004   -0.0107   -0.0009   -0.0546    0.1123
    36 H4     *px        0.0000    0.0000    0.0000   -0.0005   -0.0000    0.0000   -0.0024    0.0003   -0.0107    0.0208
    37 H4     *py        0.0001    0.0000    0.0001    0.0000    0.0000   -0.0000   -0.0009    0.0002   -0.0017    0.0006
    38 H4     *pz       -0.0000    0.0000    0.0000   -0.0000    0.0001    0.0000    0.0006    0.0000   -0.0009    0.0005
    39 O1     1s         1.0008    0.0002    0.0001    0.0000   -0.0001   -0.0000   -0.0070   -0.0002    0.0017   -0.0000
    40 O1     2s         0.0033    0.0001   -0.0001    0.0002   -0.0003   -0.0002    0.8312   -0.0271   -0.3619   -0.0148
    41 O1     *s        -0.0060   -0.0002   -0.0011   -0.0000    0.0004    0.0000   -0.0124    0.0031   -0.0328   -0.0028
    42 O1     2px       -0.0007    0.0001    0.0001   -0.0000    0.0000    0.0001   -0.0499    0.0043   -0.0303   -0.0138
    43 O1     *px        0.0012   -0.0001   -0.0001   -0.0000    0.0001   -0.0002    0.0077   -0.0023    0.0023    0.0070
    44 O1     2py        0.0008   -0.0000   -0.0001    0.0001   -0.0000   -0.0000    0.0614   -0.0043    0.0310   -0.0271
    45 O1     *py       -0.0014    0.0000    0.0000   -0.0002   -0.0001    0.0000   -0.0072    0.0010   -0.0043    0.0140
    46 O1     2pz       -0.0013    0.0000    0.0003   -0.0000    0.0001    0.0001   -0.0971    0.0124   -0.0645   -0.0155
    47 O1     *pz        0.0024   -0.0002   -0.0003    0.0000   -0.0004   -0.0000    0.0150   -0.0050    0.0054    0.0038
    48 O1     *d2-       0.0000   -0.0000   -0.0001   -0.0000   -0.0000    0.0000   -0.0037    0.0000   -0.0013    0.0002
    49 O1     *d1-       0.0001   -0.0000   -0.0002    0.0000    0.0000   -0.0000   -0.0073    0.0008   -0.0026    0.0016
    50 O1     *d0       -0.0001   -0.0000    0.0002    0.0000    0.0001   -0.0000    0.0062    0.0000    0.0013    0.0016
    51 O1     *d1+      -0.0001    0.0000    0.0002   -0.0000   -0.0000    0.0000    0.0068   -0.0006    0.0019    0.0012
    52 O1     *d2+       0.0000    0.0000   -0.0000    0.0000   -0.0000    0.0001   -0.0006   -0.0000   -0.0002    0.0019
    53 O2     1s        -0.0002    1.0001    0.0000   -0.0000    0.0000    0.0000   -0.0001   -0.0048   -0.0002   -0.0000
    54 O2     2s         0.0000    0.0003    0.0000   -0.0001    0.0000    0.0001    0.0272    0.9593    0.0217    0.0064
    55 O2     *s        -0.0001   -0.0008   -0.0001    0.0001   -0.0000   -0.0001   -0.0015    0.0176    0.0023    0.0005
    56 O2     2px       -0.0000    0.0009    0.0000    0.0000   -0.0000   -0.0000    0.0031    0.0117   -0.0035   -0.0024
    57 O2     *px       -0.0000   -0.0010   -0.0000    0.0000    0.0000    0.0000   -0.0011    0.0026    0.0008   -0.0001
    58 O2     2py        0.0000   -0.0007   -0.0000   -0.0000    0.0000    0.0000   -0.0023   -0.0087    0.0027    0.0015
    59 O2     *py       -0.0000    0.0008    0.0000    0.0000   -0.0000   -0.0000    0.0007   -0.0015   -0.0003    0.0000
    60 O2     2pz        0.0000   -0.0003   -0.0000    0.0000    0.0000   -0.0000   -0.0015   -0.0064    0.0007    0.0009
    61 O2     *pz        0.0000    0.0004    0.0001   -0.0000   -0.0000    0.0000   -0.0003    0.0001    0.0005   -0.0009
    62 O2     *d2-       0.0000    0.0001    0.0000   -0.0000   -0.0000   -0.0000   -0.0002   -0.0025    0.0001    0.0000
    63 O2     *d1-      -0.0000   -0.0000   -0.0000   -0.0000    0.0000   -0.0000    0.0003    0.0008   -0.0002    0.0000
    64 O2     *d0       -0.0000    0.0001   -0.0000    0.0000    0.0000   -0.0000    0.0002   -0.0012    0.0000   -0.0000
    65 O2     *d1+       0.0000    0.0001    0.0000   -0.0000   -0.0000   -0.0000   -0.0002   -0.0011    0.0001    0.0001
    66 O2     *d2+      -0.0000   -0.0000    0.0000   -0.0000    0.0000   -0.0000    0.0000    0.0006    0.0000   -0.0000
    67 H7     1s        -0.0001    0.0004    0.0001    0.0000    0.0000   -0.0000    0.0204    0.1069   -0.0137   -0.0027
    68 H7     *s         0.0001    0.0005   -0.0000   -0.0000    0.0000   -0.0000   -0.0026   -0.0319    0.0011    0.0018
    69 H7     *px       -0.0000   -0.0003   -0.0000    0.0000   -0.0000    0.0000   -0.0004   -0.0088   -0.0001   -0.0000
    70 H7     *py        0.0000    0.0002   -0.0000    0.0000   -0.0000   -0.0000   -0.0005    0.0073    0.0004   -0.0000
    71 H7     *pz       -0.0000    0.0001   -0.0000   -0.0000   -0.0000    0.0000   -0.0024    0.0041    0.0014   -0.0000
    72 C8     1s        -0.0001   -0.0000   -0.0042    0.0128    1.0018    0.0051   -0.0023    0.0002   -0.0110   -0.0110
    73 C8     2s        -0.0003   -0.0000    0.0003    0.0008    0.0104   -0.0006    0.0963   -0.0129    0.3512    0.3441
    74 C8     *s        -0.0003    0.0005   -0.0038   -0.0016   -0.0122    0.0014   -0.0408    0.0118   -0.1338   -0.1001
    75 C8     2px        0.0000   -0.0000    0.0002    0.0000    0.0000    0.0002   -0.0129    0.0012   -0.0404   -0.0248
    76 C8     *px       -0.0001   -0.0001    0.0005   -0.0000    0.0004   -0.0009    0.0059   -0.0006    0.0186    0.0132
    77 C8     2py       -0.0001    0.0000   -0.0002    0.0001   -0.0000   -0.0000    0.0185   -0.0017    0.0531   -0.0269
    78 C8     *py        0.0001    0.0001   -0.0007   -0.0009   -0.0005    0.0002   -0.0078    0.0009   -0.0251    0.0104
    79 C8     2pz       -0.0002    0.0000   -0.0002    0.0000   -0.0002   -0.0000    0.0463   -0.0042    0.0456    0.0054
    80 C8     *pz       -0.0002    0.0002   -0.0012   -0.0001   -0.0005    0.0002   -0.0150    0.0052   -0.0260   -0.0089
    81 C8     *d2-      -0.0001   -0.0000    0.0000   -0.0000    0.0001   -0.0000   -0.0009    0.0001   -0.0046   -0.0006
    82 C8     *d1-      -0.0001    0.0000    0.0001   -0.0001   -0.0002    0.0000    0.0059   -0.0003    0.0068   -0.0007
    83 C8     *d0        0.0000    0.0000    0.0001    0.0001   -0.0001   -0.0001    0.0033    0.0000    0.0014    0.0007
    84 C8     *d1+       0.0001   -0.0000   -0.0000    0.0000    0.0001   -0.0001   -0.0044    0.0002   -0.0051   -0.0026
    85 C8     *d2+      -0.0000   -0.0000    0.0000    0.0001    0.0000    0.0001   -0.0005    0.0001   -0.0013    0.0014
    86 H9     1s        -0.0000   -0.0000    0.0004    0.0000    0.0002   -0.0002    0.0247   -0.0042    0.1143    0.1679
    87 H9     *s        -0.0001    0.0000   -0.0002   -0.0004    0.0011   -0.0001   -0.0110    0.0016   -0.0521   -0.0750
    88 H9     *px        0.0000   -0.0000    0.0000    0.0000   -0.0002    0.0001    0.0008   -0.0002    0.0018    0.0037
    89 H9     *py       -0.0000    0.0000   -0.0000    0.0000   -0.0004   -0.0000    0.0025   -0.0003    0.0103    0.0114
    90 H9     *pz       -0.0001    0.0000   -0.0000   -0.0000    0.0001   -0.0000    0.0011   -0.0001   -0.0001   -0.0023
    91 H10    1s        -0.0000   -0.0000    0.0004    0.0002    0.0001   -0.0000    0.0248   -0.0043    0.1144    0.1262
    92 H10    *s        -0.0001    0.0000   -0.0002    0.0001    0.0011    0.0004   -0.0111    0.0017   -0.0521   -0.0521
    93 H10    *px        0.0000    0.0000    0.0000    0.0000    0.0005    0.0000   -0.0025    0.0004   -0.0104   -0.0113
    94 H10    *py       -0.0000    0.0000   -0.0000    0.0001    0.0001    0.0000   -0.0001    0.0001    0.0005   -0.0007
    95 H10    *pz       -0.0001   -0.0000   -0.0000    0.0000    0.0001    0.0000    0.0013   -0.0001    0.0004    0.0009
    96 H11    1s        -0.0001    0.0000    0.0002    0.0002    0.0002   -0.0002    0.0188   -0.0026    0.1318    0.1395
    97 H11    *s         0.0002    0.0000   -0.0002    0.0001    0.0012   -0.0001   -0.0098    0.0021   -0.0629   -0.0609
    98 H11    *px       -0.0000    0.0000    0.0000    0.0000   -0.0002    0.0001    0.0006   -0.0001    0.0036    0.0031
    99 H11    *py        0.0000   -0.0000   -0.0000    0.0001    0.0002    0.0000   -0.0007    0.0001   -0.0040   -0.0048
   100 H11    *pz        0.0000   -0.0000   -0.0001   -0.0000   -0.0004    0.0000    0.0022   -0.0004    0.0095    0.0101
   101 C12    1s        -0.0000    0.0000   -0.0041    0.0039   -0.0055    1.0019   -0.0020    0.0005   -0.0113   -0.0086
   102 C12    2s        -0.0002    0.0001    0.0003    0.0007   -0.0007    0.0104    0.0817   -0.0053    0.3583    0.2803
   103 C12    *s        -0.0002   -0.0003   -0.0035   -0.0013    0.0014   -0.0123   -0.0325   -0.0043   -0.1381   -0.0889
   104 C12    2px       -0.0002   -0.0000   -0.0003    0.0001   -0.0001   -0.0001    0.0446   -0.0038    0.0783    0.0034
   105 C12    *px       -0.0000    0.0001   -0.0014   -0.0005    0.0006   -0.0009   -0.0161    0.0055   -0.0397   -0.0104
   106 C12    2py        0.0000   -0.0000   -0.0000    0.0001    0.0001   -0.0000   -0.0017    0.0007    0.0150   -0.0360
   107 C12    *py        0.0003   -0.0002   -0.0000   -0.0008   -0.0004   -0.0001   -0.0001   -0.0055   -0.0077    0.0170
   108 C12    2pz       -0.0000   -0.0000    0.0000   -0.0000    0.0001   -0.0002    0.0077    0.0007   -0.0184   -0.0131
   109 C12    *pz       -0.0004   -0.0002   -0.0002    0.0002   -0.0006    0.0003    0.0020   -0.0028    0.0061    0.0033
   110 C12    *d2-       0.0001   -0.0000   -0.0000   -0.0001   -0.0001   -0.0000   -0.0005   -0.0001    0.0025   -0.0028
   111 C12    *d1-      -0.0001   -0.0000    0.0000    0.0000    0.0001   -0.0000    0.0015   -0.0002   -0.0004   -0.0003
   112 C12    *d0        0.0000   -0.0000   -0.0001    0.0001    0.0000    0.0001   -0.0043   -0.0002   -0.0047   -0.0009
   113 C12    *d1+      -0.0001   -0.0000    0.0001    0.0000   -0.0001   -0.0000    0.0020   -0.0002   -0.0023   -0.0015
   114 C12    *d2+      -0.0001   -0.0000    0.0001    0.0000    0.0000   -0.0002    0.0064   -0.0003    0.0081    0.0010
   115 H13    1s        -0.0000    0.0000    0.0003    0.0000   -0.0002    0.0002    0.0217   -0.0024    0.1167    0.1404
   116 H13    *s         0.0001   -0.0001   -0.0002   -0.0004   -0.0001    0.0011   -0.0104   -0.0006   -0.0534   -0.0637
   117 H13    *px       -0.0001   -0.0000   -0.0001    0.0000   -0.0000   -0.0001    0.0014   -0.0003    0.0040    0.0013
   118 H13    *py       -0.0000   -0.0000    0.0000    0.0000    0.0000   -0.0005    0.0022   -0.0001    0.0099    0.0098
   119 H13    *pz       -0.0000    0.0000    0.0000   -0.0000    0.0001    0.0000    0.0004    0.0000   -0.0014   -0.0013
   120 H14    1s        -0.0000    0.0001    0.0001    0.0002   -0.0002    0.0002    0.0165   -0.0006    0.1340    0.1149
   121 H14    *s         0.0000   -0.0000   -0.0003    0.0001   -0.0001    0.0012   -0.0076    0.0007   -0.0631   -0.0505
   122 H14    *px        0.0001   -0.0000   -0.0001    0.0000   -0.0000   -0.0001    0.0013   -0.0002    0.0042    0.0038
   123 H14    *py       -0.0000    0.0000   -0.0000    0.0001    0.0000    0.0002   -0.0005    0.0001   -0.0041   -0.0044
   124 H14    *pz        0.0000    0.0000   -0.0000   -0.0000    0.0001   -0.0004    0.0013    0.0002    0.0096    0.0076
   125 H15    1s         0.0001   -0.0000    0.0004    0.0002   -0.0000    0.0002    0.0186    0.0001    0.1164    0.0964
   126 H15    *s        -0.0000    0.0003   -0.0002    0.0001    0.0004    0.0011   -0.0106    0.0113   -0.0519   -0.0396
   127 H15    *px       -0.0001   -0.0000   -0.0000    0.0000   -0.0000   -0.0001    0.0014    0.0004    0.0052    0.0044
   128 H15    *py       -0.0000   -0.0000   -0.0000    0.0001    0.0000    0.0002   -0.0012   -0.0003   -0.0047   -0.0048
   129 H15    *pz       -0.0000   -0.0000    0.0000   -0.0000    0.0000    0.0003   -0.0010   -0.0002   -0.0083   -0.0063
   130 H16    1s        -0.0000    0.0000    0.0001   -0.0002   -0.0002   -0.0002    0.0165   -0.0008    0.1364   -0.2502
   131 H16    *s         0.0000   -0.0001   -0.0003   -0.0012   -0.0001   -0.0001   -0.0076    0.0005   -0.0639    0.1090
   132 H16    *px       -0.0000   -0.0000    0.0000    0.0002   -0.0000    0.0001    0.0002   -0.0001    0.0035   -0.0063
   133 H16    *py       -0.0001    0.0000    0.0001   -0.0001    0.0000    0.0000   -0.0013    0.0002   -0.0047    0.0089
   134 H16    *pz        0.0000    0.0000   -0.0000    0.0004    0.0001   -0.0000    0.0013    0.0001    0.0098   -0.0177
 
 
      Orbital                11        12        13        14        15        16        17        18        19        20
      Energy            -0.9513   -0.7657   -0.6472   -0.6210   -0.6175   -0.5585   -0.5561   -0.5404   -0.5266   -0.4958
      Occ. No.           2.0000    2.0000    2.0000    2.0000    2.0000    2.0000    2.0000    2.0000    2.0000    2.0000
 
     1 C1     1s         0.0001   -0.0008    0.0031   -0.0001    0.0006    0.0002    0.0002    0.0030    0.0001    0.0002
     2 C1     2s         0.0103   -0.5470   -0.1009   -0.0019    0.0129   -0.0161   -0.0048   -0.1001   -0.0011   -0.0029
     3 C1     *s        -0.0007    0.1056   -0.0369   -0.0003   -0.0013   -0.0064   -0.0013   -0.0578   -0.0015   -0.0047
     4 C1     2px       -0.2203   -0.0367    0.1515    0.3004   -0.1663    0.0397   -0.0900    0.1274    0.0015    0.3418
     5 C1     *px        0.0123    0.0235   -0.0285   -0.0211    0.0148   -0.0122   -0.0004   -0.0447    0.0017   -0.0539
     6 C1     2py        0.0529    0.0405   -0.1891    0.2191    0.2529   -0.0930   -0.0470   -0.1343   -0.0159    0.3410
     7 C1     *py       -0.0085   -0.0319    0.0379   -0.0168   -0.0240    0.0178   -0.0006    0.0600    0.0052   -0.0522
     8 C1     2pz        0.1213   -0.0633    0.2873   -0.0187    0.2312   -0.0411    0.0386    0.2247   -0.0026    0.0480
     9 C1     *pz       -0.0100    0.0420   -0.0464    0.0021   -0.0240    0.0004   -0.0045   -0.0630   -0.0003   -0.0087
    10 C1     *d2-       0.0085    0.0038   -0.0051   -0.0006   -0.0046   -0.0245    0.0044   -0.0134   -0.0004    0.0103
    11 C1     *d1-      -0.0116    0.0068   -0.0090   -0.0032    0.0003   -0.0067   -0.0165   -0.0254    0.0003   -0.0015
    12 C1     *d0       -0.0122   -0.0045    0.0052    0.0002   -0.0016   -0.0065    0.0056    0.0274    0.0007   -0.0017
    13 C1     *d1+       0.0073   -0.0060    0.0079   -0.0042   -0.0002   -0.0032   -0.0174    0.0255    0.0007    0.0094
    14 C1     *d2+       0.0168    0.0008   -0.0008    0.0041   -0.0010   -0.0040    0.0059   -0.0021    0.0002   -0.0310
    15 C2     1s         0.0011   -0.0090   -0.0012    0.0033    0.0018   -0.0003   -0.0007    0.0004   -0.0000    0.0001
    16 C2     2s        -0.0396    0.1806    0.0555   -0.0497   -0.0243   -0.0118   -0.0136   -0.0201   -0.0004    0.0850
    17 C2     *s         0.0157   -0.0150    0.0048   -0.0183   -0.0043   -0.0042    0.0053   -0.0119    0.0005    0.0258
    18 C2     2px       -0.0360    0.0568    0.1812    0.1405   -0.2807   -0.2696   -0.0420   -0.0545   -0.3086   -0.2857
    19 C2     *px        0.0155   -0.0218   -0.0397   -0.0326    0.0554    0.0373    0.0101    0.0165    0.0409    0.0313
    20 C2     2py        0.0107    0.2173    0.1361   -0.3091   -0.0677    0.1518    0.0646    0.1671    0.1215   -0.3303
    21 C2     *py       -0.0079   -0.0626   -0.0262    0.0659    0.0155   -0.0246   -0.0192   -0.0313   -0.0134    0.0398
    22 C2     2pz        0.0203   -0.0257    0.1917   -0.0238    0.2413   -0.2756   -0.3620   -0.1271    0.1957   -0.0895
    23 C2     *pz       -0.0084    0.0051   -0.0498   -0.0041   -0.0532    0.0424    0.0491    0.0204   -0.0247    0.0088
    24 C2     *d2-       0.0028   -0.0070   -0.0080    0.0048    0.0059   -0.0058    0.0006   -0.0074   -0.0037    0.0038
    25 C2     *d1-      -0.0018    0.0014    0.0006   -0.0011    0.0019   -0.0062   -0.0116   -0.0085    0.0074   -0.0044
    26 C2     *d0        0.0004    0.0090   -0.0003   -0.0126   -0.0000    0.0121    0.0065    0.0083    0.0092   -0.0014
    27 C2     *d1+      -0.0010    0.0020   -0.0066    0.0007   -0.0081    0.0064    0.0079    0.0022   -0.0066    0.0028
    28 C2     *d2+       0.0016    0.0118    0.0082   -0.0066   -0.0083   -0.0067    0.0014   -0.0006   -0.0087   -0.0219
    29 H3     1s         0.0075    0.1546    0.1692   -0.2475    0.2321   -0.0348   -0.2366   -0.0039    0.3450   -0.1027
    30 H3     *s        -0.0063   -0.0568   -0.0505    0.0809   -0.0765    0.0153    0.0745    0.0085   -0.0965    0.0220
    31 H3     *px       -0.0002    0.0049    0.0074   -0.0024   -0.0001   -0.0063   -0.0056   -0.0008    0.0010   -0.0077
    32 H3     *py        0.0015   -0.0018   -0.0039    0.0022   -0.0073    0.0037    0.0081    0.0030   -0.0071   -0.0030
    33 H3     *pz       -0.0002   -0.0092   -0.0039    0.0117   -0.0059   -0.0038    0.0025   -0.0031   -0.0110    0.0028
    34 H4     1s        -0.0411    0.1519    0.2148    0.0952   -0.2803   -0.2853   -0.0593   -0.0721   -0.3135   -0.3085
    35 H4     *s         0.0214   -0.0470   -0.0698   -0.0296    0.0867    0.0806    0.0180    0.0098    0.0817    0.0586
    36 H4     *px        0.0019   -0.0099   -0.0093   -0.0019    0.0112    0.0097    0.0025    0.0021    0.0107    0.0098
    37 H4     *py       -0.0012    0.0030    0.0010   -0.0053   -0.0004    0.0042    0.0012    0.0040    0.0031   -0.0039
    38 H4     *pz        0.0008   -0.0012    0.0037   -0.0005    0.0060   -0.0052   -0.0070   -0.0021    0.0047   -0.0010
    39 O1     1s         0.0001   -0.0005    0.0021    0.0000   -0.0001   -0.0005    0.0002   -0.0006    0.0000   -0.0001
    40 O1     2s         0.0191    0.2378   -0.1297   -0.0033   -0.0086    0.0021    0.0031    0.0147   -0.0008   -0.0068
    41 O1     *s         0.0030    0.0587   -0.0709   -0.0018   -0.0005    0.0037   -0.0003    0.0134   -0.0003   -0.0014
    42 O1     2px       -0.0267    0.1574   -0.1662    0.0584   -0.0408    0.0001   -0.0516   -0.1832   -0.0027    0.0375
    43 O1     *px        0.0138   -0.0015   -0.0025   -0.0191    0.0098   -0.0044    0.0110   -0.0091   -0.0007   -0.0118
    44 O1     2py        0.0059   -0.1714    0.1767    0.0457    0.0588   -0.0243   -0.0045    0.2035    0.0025    0.0744
    45 O1     *py       -0.0021    0.0045    0.0017   -0.0143   -0.0148    0.0103    0.0050    0.0066    0.0003   -0.0101
    46 O1     2pz        0.0223    0.3070   -0.3352   -0.0069    0.0279   -0.0671   -0.0070   -0.3537   -0.0071   -0.0200
    47 O1     *pz       -0.0067   -0.0043   -0.0031    0.0022   -0.0135    0.0037   -0.0030   -0.0174   -0.0002   -0.0024
    48 O1     *d2-      -0.0011    0.0049   -0.0037    0.0007   -0.0032   -0.0001   -0.0008   -0.0036   -0.0001    0.0002
    49 O1     *d1-       0.0000    0.0096   -0.0074   -0.0031   -0.0018    0.0007   -0.0002   -0.0079   -0.0002   -0.0042
    50 O1     *d0       -0.0026   -0.0054    0.0043    0.0005   -0.0047    0.0028   -0.0008    0.0026    0.0003   -0.0005
    51 O1     *d1+       0.0014   -0.0078    0.0060   -0.0038    0.0010   -0.0002    0.0013    0.0059   -0.0000   -0.0033
    52 O1     *d2+       0.0010    0.0007   -0.0005   -0.0031   -0.0009    0.0006    0.0020   -0.0007    0.0004   -0.0052
    53 O2     1s         0.0001    0.0003   -0.0002   -0.0001   -0.0001    0.0003    0.0000    0.0004   -0.0000   -0.0003
    54 O2     2s        -0.0094   -0.0269    0.0235    0.0001   -0.0168    0.0200    0.0013    0.0615   -0.0007   -0.0048
    55 O2     *s        -0.0008   -0.0080    0.0100    0.0006   -0.0019    0.0037    0.0009    0.0204   -0.0000    0.0002
    56 O2     2px        0.0020    0.0198   -0.0448   -0.0004    0.0182   -0.0525   -0.0075   -0.1548    0.0063    0.0253
    57 O2     *px        0.0001   -0.0016    0.0008    0.0001    0.0018   -0.0036   -0.0001   -0.0065    0.0002    0.0024
    58 O2     2py       -0.0016   -0.0156    0.0351   -0.0015   -0.0137    0.0399    0.0035    0.1212   -0.0021   -0.0207
    59 O2     *py        0.0001    0.0006    0.0001   -0.0005   -0.0010    0.0025    0.0002    0.0053   -0.0005   -0.0020
    60 O2     2pz       -0.0012   -0.0071    0.0113   -0.0002   -0.0079    0.0143    0.0020    0.0483   -0.0011   -0.0061
    61 O2     *pz        0.0015   -0.0013    0.0025   -0.0002    0.0025   -0.0003    0.0006    0.0018   -0.0002   -0.0005
    62 O2     *d2-      -0.0000   -0.0007    0.0014   -0.0000   -0.0004    0.0012    0.0002    0.0041   -0.0001   -0.0006
    63 O2     *d1-       0.0000    0.0004   -0.0007    0.0000    0.0001   -0.0004    0.0001   -0.0016   -0.0001    0.0002
    64 O2     *d0        0.0001   -0.0002    0.0007   -0.0000    0.0001    0.0006    0.0001    0.0020   -0.0001   -0.0003
    65 O2     *d1+       0.0000   -0.0004    0.0008    0.0000   -0.0001    0.0007    0.0003    0.0019   -0.0002   -0.0003
    66 O2     *d2+       0.0000    0.0001   -0.0002    0.0000    0.0001   -0.0003   -0.0000   -0.0010   -0.0000    0.0002
    67 H7     1s         0.0025    0.0500   -0.0783    0.0002    0.0150   -0.0536   -0.0088   -0.1915    0.0036    0.0200
    68 H7     *s        -0.0022   -0.0010    0.0002   -0.0013   -0.0062    0.0082    0.0001    0.0124   -0.0005   -0.0051
    69 H7     *px       -0.0000   -0.0006    0.0015   -0.0000   -0.0006    0.0016    0.0000    0.0051   -0.0002   -0.0009
    70 H7     *py        0.0000   -0.0002   -0.0003   -0.0001    0.0006   -0.0016   -0.0003   -0.0035    0.0002    0.0008
    71 H7     *pz        0.0001   -0.0023    0.0019    0.0002    0.0006   -0.0010    0.0002   -0.0004    0.0001    0.0011
    72 C8     1s         0.0166   -0.0092   -0.0003    0.0002   -0.0031    0.0005   -0.0002   -0.0001   -0.0000    0.0000
    73 C8     2s        -0.5187    0.1801    0.0397   -0.0030    0.0617    0.0123   -0.0053   -0.0133    0.0004   -0.0171
    74 C8     *s         0.1507   -0.0256    0.0132   -0.0010    0.0112    0.0093   -0.0005    0.0191    0.0008   -0.0045
    75 C8     2px       -0.0251    0.0811    0.1649    0.3047    0.1148    0.2217    0.0755   -0.1265    0.2903   -0.1612
    76 C8     *px        0.0093   -0.0230   -0.0412   -0.0642   -0.0181   -0.0297   -0.0047    0.0158   -0.0389    0.0142
    77 C8     2py       -0.0077   -0.1112   -0.2121    0.2471   -0.1229   -0.1682    0.1771    0.1208    0.2514   -0.2181
    78 C8     *py        0.0072    0.0326    0.0515   -0.0510    0.0186    0.0248   -0.0193   -0.0161   -0.0329    0.0215
    79 C8     2pz       -0.0043   -0.1879    0.0876    0.0029   -0.2661    0.3318   -0.1351   -0.2987   -0.0130   -0.0384
    80 C8     *pz        0.0119    0.0550   -0.0302   -0.0012    0.0581   -0.0479    0.0205    0.0527    0.0020    0.0052
    81 C8     *d2-      -0.0000    0.0044    0.0102   -0.0017    0.0040    0.0046   -0.0033   -0.0012   -0.0039    0.0070
    82 C8     *d1-      -0.0021   -0.0123   -0.0010    0.0054   -0.0118    0.0080   -0.0043   -0.0093    0.0021    0.0015
    83 C8     *d0       -0.0008   -0.0055   -0.0046   -0.0004   -0.0047   -0.0110    0.0044    0.0149    0.0005   -0.0023
    84 C8     *d1+      -0.0004    0.0094   -0.0003    0.0050    0.0095   -0.0079    0.0016    0.0086    0.0015    0.0070
    85 C8     *d2+       0.0011    0.0014    0.0023    0.0085    0.0019    0.0033    0.0076   -0.0004    0.0164   -0.0212
    86 H9     1s        -0.2084    0.1563    0.1779   -0.3117    0.0979    0.1311   -0.2078   -0.1226   -0.3411    0.2864
    87 H9     *s         0.0885   -0.0504   -0.0583    0.0964   -0.0302   -0.0414    0.0605    0.0263    0.0891   -0.0545
    88 H9     *px       -0.0051    0.0042    0.0058    0.0013    0.0032    0.0065   -0.0015   -0.0041    0.0009   -0.0011
    89 H9     *py       -0.0166    0.0091    0.0058   -0.0125    0.0044    0.0034   -0.0071   -0.0035   -0.0126    0.0092
    90 H9     *pz        0.0007   -0.0043    0.0022    0.0019   -0.0048    0.0060   -0.0024   -0.0053    0.0012   -0.0002
    91 H10    1s        -0.2364    0.1562    0.1676    0.3081    0.1318    0.2267    0.0831   -0.1457    0.3234   -0.2185
    92 H10    *s         0.1035   -0.0505   -0.0545   -0.0947   -0.0406   -0.0683   -0.0233    0.0328   -0.0842    0.0403
    93 H10    *px        0.0179   -0.0101   -0.0064   -0.0117   -0.0065   -0.0077   -0.0029    0.0049   -0.0116    0.0067
    94 H10    *py        0.0016   -0.0022   -0.0045    0.0039   -0.0019   -0.0042    0.0034    0.0027    0.0041   -0.0052
    95 H10    *pz        0.0014   -0.0036    0.0027   -0.0008   -0.0046    0.0065   -0.0022   -0.0058   -0.0008   -0.0017
    96 H11    1s        -0.2108    0.1774   -0.1806   -0.0141    0.1848   -0.4343    0.1639    0.3822    0.0090    0.0007
    97 H11    *s         0.0919   -0.0561    0.0459    0.0035   -0.0471    0.1164   -0.0427   -0.0878   -0.0024    0.0023
    98 H11    *px       -0.0062    0.0049   -0.0004    0.0058    0.0053   -0.0030    0.0044    0.0028    0.0064   -0.0034
    99 H11    *py        0.0060   -0.0058   -0.0001    0.0052   -0.0057    0.0050    0.0007   -0.0033    0.0052   -0.0043
   100 H11    *pz       -0.0152    0.0078   -0.0069   -0.0007    0.0053   -0.0144    0.0052    0.0119    0.0001   -0.0007
   101 C12    1s        -0.0172   -0.0091   -0.0010   -0.0035    0.0015    0.0001    0.0011    0.0002    0.0000   -0.0001
   102 C12    2s         0.5528    0.1859    0.0541    0.0554   -0.0201   -0.0043    0.0175   -0.0233   -0.0015   -0.0718
   103 C12    *s        -0.1675   -0.0192    0.0065    0.0204   -0.0032   -0.0056   -0.0060   -0.0070   -0.0005   -0.0192
   104 C12    2px        0.0010   -0.2242   -0.1489   -0.2830    0.1072   -0.0581    0.0965   -0.1714    0.0271   -0.3232
   105 C12    *px       -0.0142    0.0644    0.0294    0.0613   -0.0247    0.0090   -0.0235    0.0358   -0.0011    0.0402
   106 C12    2py        0.0115   -0.0092   -0.1442    0.1654    0.2819    0.2178   -0.1706    0.1230   -0.3360   -0.2504
   107 C12    *py       -0.0034    0.0082    0.0329   -0.0376   -0.0553   -0.0289    0.0277   -0.0302    0.0434    0.0252
   108 C12    2pz        0.0174   -0.0147    0.2029    0.0192    0.2175   -0.0490    0.4339   -0.1922   -0.1837    0.0310
   109 C12    *pz       -0.0121    0.0019   -0.0543    0.0049   -0.0482    0.0113   -0.0637    0.0293    0.0237   -0.0032
   110 C12    *d2-       0.0018   -0.0014   -0.0035   -0.0016    0.0023   -0.0076    0.0028   -0.0074    0.0060    0.0098
   111 C12    *d1-       0.0003   -0.0015    0.0064    0.0007    0.0081   -0.0004    0.0115   -0.0051   -0.0088   -0.0009
   112 C12    *d0       -0.0012    0.0092   -0.0012    0.0122    0.0009    0.0071   -0.0104    0.0097   -0.0088   -0.0008
   113 C12    *d1+       0.0013   -0.0002    0.0016    0.0007   -0.0004   -0.0001   -0.0100    0.0107    0.0048    0.0028
   114 C12    *d2+       0.0015   -0.0137   -0.0103   -0.0094    0.0086    0.0033   -0.0020   -0.0013   -0.0062   -0.0210
   115 H13    1s         0.2245    0.1538    0.2127   -0.0523   -0.2839   -0.2059    0.1841   -0.1127    0.3173    0.3421
   116 H13    *s        -0.0950   -0.0482   -0.0696    0.0170    0.0890    0.0578   -0.0551    0.0214   -0.0846   -0.0671
   117 H13    *px        0.0050   -0.0009    0.0015   -0.0051   -0.0023   -0.0045    0.0045   -0.0052    0.0049    0.0002
   118 H13    *py        0.0177    0.0104    0.0092    0.0010   -0.0108   -0.0059    0.0062   -0.0026    0.0099    0.0108
   119 H13    *pz       -0.0009   -0.0016    0.0034    0.0004    0.0063   -0.0002    0.0080   -0.0030   -0.0054   -0.0013
   120 H14    1s         0.2237    0.1767   -0.1333    0.1844   -0.1329    0.1497   -0.4797    0.3013    0.0225   -0.0294
   121 H14    *s        -0.0979   -0.0595    0.0352   -0.0471    0.0352   -0.0382    0.1275   -0.0636   -0.0054    0.0136
   122 H14    *px        0.0074    0.0016   -0.0050   -0.0001   -0.0014    0.0023   -0.0089    0.0043    0.0011   -0.0065
   123 H14    *py       -0.0064   -0.0047    0.0002   -0.0006    0.0085    0.0018    0.0061   -0.0024   -0.0077   -0.0045
   124 H14    *pz        0.0159    0.0099   -0.0024    0.0096   -0.0023    0.0059   -0.0131    0.0085   -0.0029   -0.0008
   125 H15    1s         0.2436    0.1555    0.1608    0.2263    0.2456    0.0937    0.2197   -0.0355   -0.3353   -0.0170
   126 H15    *s        -0.1093   -0.0579   -0.0477   -0.0743   -0.0828   -0.0241   -0.0703    0.0225    0.0951    0.0020
   127 H15    *px        0.0063    0.0003    0.0021    0.0004    0.0066    0.0012    0.0065   -0.0038   -0.0062   -0.0065
   128 H15    *py       -0.0099   -0.0054   -0.0080   -0.0033   -0.0017    0.0019   -0.0095    0.0029    0.0025   -0.0052
   129 H15    *pz       -0.0152   -0.0093   -0.0033   -0.0111   -0.0072   -0.0048   -0.0008   -0.0031    0.0112    0.0006
   130 H16    1s        -0.0179    0.1744   -0.1274   -0.1809   -0.1612    0.3946    0.3607    0.2193   -0.0222    0.0751
   131 H16    *s         0.0080   -0.0589    0.0346    0.0461    0.0435   -0.1049   -0.0958   -0.0429    0.0060   -0.0239
   132 H16    *px       -0.0014    0.0046    0.0009   -0.0001   -0.0084    0.0006    0.0050    0.0011   -0.0071   -0.0045
   133 H16    *py        0.0009   -0.0020    0.0049   -0.0005    0.0033   -0.0065   -0.0076   -0.0028    0.0031   -0.0078
   134 H16    *pz       -0.0008    0.0097   -0.0023   -0.0096   -0.0033    0.0127    0.0091    0.0063    0.0031    0.0013
 
 
      Orbital                21        22        23        24        25        26        27
      Energy            -0.4956   -0.4805   -0.3366    0.0003    0.0002    0.0083    0.1154
      Occ. No.           2.0000    2.0000    1.5124    1.5511    1.4876    1.4489    0.0000
 
     1 C1     1s         0.0012    0.0025    0.0002   -0.0001   -0.0000    0.0009    0.0043
     2 C1     2s        -0.0012    0.0057    0.0019   -0.0036    0.0032    0.0099    0.0671
     3 C1     *s        -0.0204   -0.0386   -0.0064    0.0102    0.0041    0.0105    0.0141
     4 C1     2px       -0.2655    0.1194   -0.0493   -0.0434   -0.0490    0.0391    0.0430
     5 C1     *px        0.0366   -0.0355   -0.0106    0.0086    0.0291   -0.0010   -0.0011
     6 C1     2py        0.2035   -0.1632   -0.0468    0.0497   -0.0471   -0.0443   -0.0538
     7 C1     *py       -0.0274    0.0368   -0.0034   -0.0135    0.0147   -0.0114   -0.0553
     8 C1     2pz        0.3196    0.0450    0.0019    0.0441    0.0055   -0.0423    0.1038
     9 C1     *pz       -0.0587   -0.0425    0.0035   -0.0264   -0.0072   -0.0211   -0.1151
    10 C1     *d2-       0.0162   -0.0110   -0.0040   -0.0048   -0.0038    0.0067   -0.0013
    11 C1     *d1-      -0.0237   -0.0040    0.0102   -0.0072    0.0112    0.0105    0.0017
    12 C1     *d0       -0.0100    0.0111    0.0005   -0.0207    0.0005    0.0212   -0.0022
    13 C1     *d1+       0.0162    0.0036    0.0112    0.0058    0.0126   -0.0088   -0.0041
    14 C1     *d2+       0.0106   -0.0014    0.0207    0.0006    0.0192   -0.0001   -0.0025
    15 C2     1s         0.0001   -0.0008    0.0008   -0.0005    0.0002   -0.0008    0.0052
    16 C2     2s         0.0189   -0.0285   -0.0589    0.0302   -0.0518   -0.0242   -0.0124
    17 C2     *s         0.0097    0.0152   -0.0246    0.0189   -0.0103    0.0151   -0.0951
    18 C2     2px        0.1261   -0.0295    0.0087   -0.0161    0.0042    0.0085   -0.0092
    19 C2     *px       -0.0098   -0.0002    0.0053   -0.0099   -0.0104   -0.0016   -0.0188
    20 C2     2py       -0.1522    0.1292    0.0853   -0.0382    0.0911    0.0427   -0.0251
    21 C2     *py        0.0125   -0.0119   -0.0315    0.0135    0.0105    0.0005   -0.0473
    22 C2     2pz       -0.2061   -0.0249   -0.0333    0.0248   -0.0147   -0.0041   -0.0049
    23 C2     *pz        0.0224    0.0212    0.0100   -0.0008    0.0150    0.0089    0.0384
    24 C2     *d2-       0.0113   -0.0071    0.0004    0.0016   -0.0004   -0.0015   -0.0013
    25 C2     *d1-      -0.0165   -0.0010   -0.0005   -0.0016    0.0004    0.0009   -0.0079
    26 C2     *d0       -0.0067    0.0061    0.0012   -0.0011    0.0035    0.0020    0.0019
    27 C2     *d1+       0.0053   -0.0009    0.0021   -0.0012    0.0013    0.0004   -0.0005
    28 C2     *d2+       0.0077   -0.0013    0.0017    0.0004    0.0028    0.0001   -0.0027
    29 H3     1s        -0.3202    0.0535   -0.0152    0.0079    0.0050    0.0126   -0.0153
    30 H3     *s         0.0661   -0.0299    0.0419   -0.0383   -0.0319   -0.0084    0.0378
    31 H3     *px       -0.0020   -0.0005    0.0002    0.0001   -0.0005    0.0001    0.0004
    32 H3     *py        0.0066    0.0010    0.0006    0.0013    0.0026    0.0002   -0.0015
    33 H3     *pz        0.0077   -0.0013   -0.0005   -0.0012   -0.0001   -0.0007    0.0010
    34 H4     1s         0.1439   -0.0461   -0.0121    0.0067   -0.0094   -0.0094   -0.0173
    35 H4     *s        -0.0273    0.0089    0.0231    0.0079    0.0260   -0.0015    0.0817
    36 H4     *px       -0.0036    0.0010    0.0005   -0.0007    0.0005    0.0006   -0.0022
    37 H4     *py       -0.0048    0.0025    0.0001   -0.0018   -0.0009    0.0010   -0.0008
    38 H4     *pz       -0.0047   -0.0008   -0.0001    0.0009    0.0006   -0.0002    0.0007
    39 O1     1s        -0.0006   -0.0012   -0.0005    0.0015   -0.0005   -0.0001    0.0021
    40 O1     2s        -0.0241   -0.0962   -0.0084    0.0268   -0.0092    0.0034   -0.1454
    41 O1     *s        -0.0022   -0.0217    0.0019   -0.0009   -0.0001    0.0043   -0.1305
    42 O1     2px       -0.1071   -0.0997    0.5005    0.3480    0.5056   -0.3559   -0.0207
    43 O1     *px        0.0049   -0.0142    0.0278    0.0145    0.0207   -0.0138    0.0138
    44 O1     2py        0.1064    0.1141    0.4449   -0.3916    0.4517    0.4005   -0.0418
    45 O1     *py       -0.0030    0.0136    0.0239   -0.0184    0.0181    0.0188   -0.0295
    46 O1     2pz       -0.0461   -0.1756   -0.0042   -0.4036   -0.0070    0.4328   -0.1231
    47 O1     *pz       -0.0166   -0.0212   -0.0004   -0.0319    0.0035    0.0166   -0.0783
    48 O1     *d2-      -0.0043   -0.0020    0.0010    0.0047    0.0009   -0.0043    0.0002
    49 O1     *d1-      -0.0030   -0.0026   -0.0043   -0.0001   -0.0047   -0.0019   -0.0019
    50 O1     *d0       -0.0051    0.0065   -0.0000    0.0057    0.0001   -0.0068    0.0087
    51 O1     *d1+       0.0035    0.0032   -0.0047   -0.0007   -0.0050    0.0022    0.0052
    52 O1     *d2+       0.0001   -0.0004   -0.0055    0.0009   -0.0050   -0.0009    0.0004
    53 O2     1s        -0.0008   -0.0035    0.0003    0.0015    0.0006    0.0002    0.0143
    54 O2     2s        -0.0186   -0.1363   -0.0014    0.0233    0.0025   -0.0078   -0.1401
    55 O2     *s        -0.0013   -0.0311   -0.0020   -0.0111   -0.0036   -0.0013   -0.2639
    56 O2     2px        0.1070    0.5155    0.3730    0.2508   -0.4035    0.1502   -0.3979
    57 O2     *px        0.0093    0.0401    0.0141    0.0125   -0.0165   -0.0011   -0.1601
    58 O2     2py       -0.0823   -0.3998    0.5544   -0.0350   -0.5422    0.0505    0.3062
    59 O2     *py       -0.0065   -0.0294    0.0249   -0.0026   -0.0178    0.0059    0.1295
    60 O2     2pz       -0.0235   -0.1500   -0.1205    0.6215    0.1293    0.6837    0.1160
    61 O2     *pz       -0.0013   -0.0085   -0.0042    0.0268    0.0055    0.0234    0.0686
    62 O2     *d2-      -0.0024   -0.0123    0.0016   -0.0015   -0.0012    0.0003   -0.0031
    63 O2     *d1-       0.0009    0.0040   -0.0009   -0.0032    0.0004   -0.0025    0.0002
    64 O2     *d0       -0.0014   -0.0065    0.0006   -0.0034   -0.0003   -0.0009   -0.0024
    65 O2     *d1+      -0.0011   -0.0053   -0.0016    0.0033    0.0014    0.0032   -0.0006
    66 O2     *d2+       0.0006    0.0032    0.0047    0.0015   -0.0043    0.0007    0.0009
    67 H7     1s         0.0845    0.4624    0.0045   -0.0153    0.0035   -0.0167    0.5438
    68 H7     *s        -0.0159   -0.0493   -0.0001    0.0324    0.0013    0.0099    0.6111
    69 H7     *px       -0.0035   -0.0174    0.0072    0.0013   -0.0023    0.0045    0.0199
    70 H7     *py        0.0036    0.0160    0.0080    0.0012   -0.0052   -0.0026   -0.0123
    71 H7     *pz        0.0038    0.0122   -0.0030    0.0105    0.0003    0.0024    0.0045
    72 C8     1s         0.0002   -0.0005    0.0000    0.0017    0.0001    0.0003    0.0119
    73 C8     2s        -0.0931    0.0166    0.0035   -0.0654    0.0042    0.0769   -0.0095
    74 C8     *s        -0.0282    0.0101    0.0043   -0.0420   -0.0052   -0.0001   -0.2364
    75 C8     2px        0.2809   -0.0603   -0.0141    0.0199   -0.0143   -0.0206    0.0133
    76 C8     *px       -0.0303    0.0073   -0.0058    0.0037   -0.0058    0.0017    0.0535
    77 C8     2py       -0.2781    0.0774   -0.0090   -0.0317   -0.0094    0.0327   -0.0159
    78 C8     *py        0.0309   -0.0090   -0.0041   -0.0058   -0.0055   -0.0016   -0.0540
    79 C8     2pz       -0.2369    0.0198    0.0057   -0.1007    0.0050    0.1031   -0.0078
    80 C8     *pz        0.0311   -0.0029    0.0003    0.0086   -0.0038   -0.0274   -0.0124
    81 C8     *d2-       0.0094   -0.0009   -0.0003   -0.0005   -0.0003    0.0014    0.0042
    82 C8     *d1-      -0.0113    0.0011   -0.0002   -0.0049   -0.0007    0.0039   -0.0041
    83 C8     *d0       -0.0120    0.0079    0.0002   -0.0005    0.0001   -0.0002    0.0067
    84 C8     *d1+       0.0062   -0.0005   -0.0009    0.0038   -0.0012   -0.0030    0.0035
    85 C8     *d2+       0.0070   -0.0001    0.0012    0.0002    0.0019   -0.0001    0.0006
    86 H9     1s         0.1462   -0.0612    0.0043   -0.0151    0.0051    0.0183   -0.0121
    87 H9     *s        -0.0301    0.0084   -0.0178    0.0175   -0.0187   -0.0180    0.0199
    88 H9     *px        0.0074   -0.0017    0.0002    0.0000    0.0002    0.0001   -0.0004
    89 H9     *py        0.0025   -0.0014   -0.0004   -0.0009   -0.0001    0.0012    0.0010
    90 H9     *pz       -0.0046    0.0003   -0.0020   -0.0000   -0.0018    0.0005    0.0016
    91 H10    1s         0.2484   -0.0592   -0.0026   -0.0156   -0.0031    0.0189   -0.0103
    92 H10    *s        -0.0493    0.0080    0.0154    0.0201    0.0164   -0.0210    0.0121
    93 H10    *px       -0.0074    0.0017   -0.0003    0.0008   -0.0001   -0.0012   -0.0010
    94 H10    *py       -0.0052    0.0015    0.0004   -0.0002    0.0002    0.0002    0.0005
    95 H10    *pz       -0.0037    0.0003    0.0021    0.0001    0.0018    0.0005    0.0011
    96 H11    1s        -0.0253    0.0536   -0.0031    0.0622   -0.0023   -0.0625    0.0404
    97 H11    *s         0.0187   -0.0088   -0.0003    0.0010   -0.0007   -0.0071    0.1130
    98 H11    *px        0.0047   -0.0006   -0.0003    0.0018   -0.0004   -0.0019   -0.0001
    99 H11    *py       -0.0044    0.0009   -0.0000   -0.0023   -0.0001    0.0024   -0.0000
   100 H11    *pz       -0.0055    0.0020    0.0000   -0.0006    0.0001    0.0006   -0.0004
   101 C12    1s         0.0001   -0.0009   -0.0003   -0.0008   -0.0009   -0.0005    0.0069
   102 C12    2s         0.0472   -0.0217    0.0537    0.0381    0.0480   -0.0277   -0.0125
   103 C12    *s         0.0179    0.0180    0.0127    0.0252    0.0236    0.0084   -0.1398
   104 C12    2px        0.2426   -0.1080    0.0808    0.0510    0.0827   -0.0545    0.0090
   105 C12    *px       -0.0268    0.0020   -0.0228   -0.0167    0.0039   -0.0056    0.0259
   106 C12    2py       -0.0916    0.0713   -0.0116    0.0083   -0.0121    0.0033   -0.0051
   107 C12    *py        0.0062    0.0024    0.0045    0.0158   -0.0053    0.0058   -0.0128
   108 C12    2pz       -0.2413    0.0008    0.0216    0.0290    0.0136   -0.0005   -0.0040
   109 C12    *pz        0.0262    0.0192   -0.0139   -0.0009   -0.0088    0.0096    0.0229
   110 C12    *d2-       0.0109   -0.0075   -0.0011    0.0016   -0.0008   -0.0012   -0.0010
   111 C12    *d1-      -0.0106    0.0020    0.0016    0.0011    0.0016   -0.0001   -0.0015
   112 C12    *d0       -0.0078    0.0064   -0.0017   -0.0014   -0.0030    0.0026   -0.0005
   113 C12    *d1+       0.0140    0.0015   -0.0001    0.0015    0.0004   -0.0009    0.0082
   114 C12    *d2+       0.0065   -0.0013    0.0015    0.0004    0.0026   -0.0013    0.0012
   115 H13    1s         0.0357   -0.0606    0.0114    0.0082    0.0062   -0.0095   -0.0115
   116 H13    *s        -0.0072    0.0134   -0.0256    0.0052   -0.0220    0.0015    0.0349
   117 H13    *px        0.0057   -0.0024   -0.0003    0.0021   -0.0008   -0.0010    0.0006
   118 H13    *py       -0.0012   -0.0009    0.0004    0.0004    0.0006   -0.0005    0.0005
   119 H13    *pz       -0.0051   -0.0000   -0.0000    0.0009   -0.0006    0.0000    0.0003
   120 H14    1s         0.1166    0.0719   -0.0462   -0.0355   -0.0384    0.0146    0.0318
   121 H14    *s        -0.0284   -0.0099   -0.0056   -0.0016    0.0003    0.0011    0.0791
   122 H14    *px        0.0072   -0.0002    0.0019    0.0008    0.0018   -0.0014   -0.0009
   123 H14    *py       -0.0039    0.0003    0.0008    0.0008    0.0006   -0.0003    0.0004
   124 H14    *pz       -0.0004    0.0020   -0.0019   -0.0014   -0.0012    0.0003   -0.0005
   125 H15    1s        -0.3489    0.0752    0.0102    0.0124   -0.0002    0.0157   -0.0108
   126 H15    *s         0.0715   -0.0522   -0.0195   -0.0505    0.0137   -0.0174    0.0744
   127 H15    *px       -0.0038   -0.0006    0.0013   -0.0016    0.0017   -0.0006    0.0022
   128 H15    *py        0.0059    0.0007   -0.0002    0.0002   -0.0008   -0.0000   -0.0009
   129 H15    *pz        0.0088   -0.0017    0.0005   -0.0016   -0.0000   -0.0010   -0.0009
   130 H16    1s         0.0977    0.0882    0.0537   -0.0274    0.0394    0.0117    0.0333
   131 H16    *s        -0.0211   -0.0121    0.0044   -0.0013    0.0009    0.0019    0.0792
   132 H16    *px        0.0039    0.0005    0.0014   -0.0008    0.0011    0.0005   -0.0001
   133 H16    *py       -0.0053    0.0002    0.0019   -0.0005    0.0017    0.0011    0.0004
   134 H16    *pz       -0.0004    0.0025    0.0022   -0.0011    0.0010    0.0001   -0.0012
--
 
      Von Neumann Entropy (Root   1) =  0.99064
 

      Mulliken population analysis for root number:  1
      -----------------------------------------------
 
 
++    Molecular charges:
      ------------------
 
      Mulliken charges per centre and basis function type
      ---------------------------------------------------
 
[...]
   112 C12    *d0       -0.0125    0.0019   -0.0015   -0.0016   -0.0038    0.0037
   113 C12    *d1+       0.0097    0.0006   -0.0010    0.0007   -0.0007    0.0005
   114 C12    *d2+       0.0006   -0.0216    0.0019    0.0009    0.0033   -0.0017
   115 H13    1s         0.1681    0.3100    0.0126    0.0039    0.0098   -0.0091
   116 H13    *s        -0.0332   -0.0615   -0.0235    0.0095   -0.0247    0.0025
   117 H13    *px        0.0065   -0.0014    0.0002    0.0022   -0.0006   -0.0010
   118 H13    *py        0.0030    0.0106    0.0005    0.0002    0.0007   -0.0003
   119 H13    *pz       -0.0045    0.0011    0.0000    0.0007   -0.0004   -0.0004
   120 H14    1s         0.0221   -0.0574   -0.0550   -0.0416   -0.0445    0.0242
   121 H14    *s        -0.0099    0.0223   -0.0055    0.0003   -0.0024    0.0031
   122 H14    *px        0.0036   -0.0083    0.0019    0.0011    0.0018   -0.0014
   123 H14    *py       -0.0043   -0.0030    0.0010    0.0009    0.0008   -0.0006
   124 H14    *pz       -0.0028   -0.0002   -0.0022   -0.0014   -0.0013    0.0001
   125 H15    1s        -0.3298    0.0932    0.0192    0.0199    0.0034    0.0059
   126 H15    *s         0.0737   -0.0205   -0.0371   -0.0591    0.0236   -0.0288
   127 H15    *px       -0.0042   -0.0052    0.0010   -0.0021    0.0022   -0.0005
   128 H15    *py        0.0028   -0.0067   -0.0000    0.0002   -0.0010    0.0004
   129 H15    *pz        0.0090   -0.0022    0.0003   -0.0016   -0.0005    0.0004
   130 H16    1s         0.0409    0.0593    0.0579   -0.0356    0.0430    0.0192
   131 H16    *s        -0.0162   -0.0201    0.0057    0.0007    0.0020    0.0026
   132 H16    *px        0.0018   -0.0054    0.0017   -0.0010    0.0013    0.0008
   133 H16    *py       -0.0065   -0.0060    0.0018   -0.0007    0.0017    0.0011
   134 H16    *pz       -0.0023    0.0017    0.0023   -0.0011    0.0011   -0.0001
--
 
      Von Neumann Entropy (Root   1) =  0.99984
 

      Mulliken population analysis for root number:  1
      -----------------------------------------------
 
 
++    Molecular charges:
      ------------------
 
      Mulliken charges per centre and basis function type
      ---------------------------------------------------
 
                C1      C2      H3      H4      O1      O2      H7      C8      H9      H10     H11     C12   
      1s       2.0042  2.0039  1.2560  1.2628  2.0016  2.0008  1.0281  2.0039  1.2625  1.2625  1.2650  2.0039
      2s       1.3920  1.4472  0.0000  0.0000  1.8774  1.9006  0.0000  1.4511  0.0000  0.0000  0.0000  1.4465
      2px      1.0691  1.1668  0.0000  0.0000  1.2028  1.2424  0.0000  1.1650  0.0000  0.0000  0.0000  1.0797
      2pz      0.9059  1.1779  0.0000  0.0000  1.5734  1.7380  0.0000  1.1247  0.0000  0.0000  0.0000  1.1768
      2py      1.0536  1.0912  0.0000  0.0000  1.5554  1.3921  0.0000  1.1555  0.0000  0.0000  0.0000  1.1747
      *s      -0.1811 -0.4387 -0.3342 -0.3348  0.0217 -0.0613 -0.3141 -0.4467 -0.3343 -0.3343 -0.3317 -0.4378
      *px     -0.0735 -0.1757  0.0070  0.0211  0.0132  0.0101  0.0202 -0.1756  0.0062  0.0212  0.0071 -0.1866
      *pz     -0.0927 -0.1783  0.0162  0.0054  0.0049 -0.0023  0.0363 -0.1942  0.0046  0.0047  0.0166 -0.1788
      *py     -0.0722 -0.1862  0.0080  0.0043  0.0260 -0.0105  0.0273 -0.1770  0.0201  0.0050  0.0074 -0.1759
      *d2+     0.0329  0.0178  0.0000  0.0000  0.0008  0.0003  0.0000  0.0171  0.0000  0.0000  0.0000  0.0171
      *d1+     0.0305  0.0055  0.0000  0.0000  0.0025  0.0017  0.0000  0.0087  0.0000  0.0000  0.0000  0.0095
      *d0      0.0429  0.0122  0.0000  0.0000  0.0029  0.0007  0.0000  0.0137  0.0000  0.0000  0.0000  0.0120
      *d1-     0.0376  0.0124  0.0000  0.0000  0.0032  0.0029  0.0000  0.0121  0.0000  0.0000  0.0000  0.0086
      *d2-     0.0249  0.0086  0.0000  0.0000  0.0009  0.0015  0.0000  0.0053  0.0000  0.0000  0.0000  0.0090
      Total    6.1742  5.9644  0.9529  0.9589  8.2865  8.2171  0.7978  5.9634  0.9591  0.9591  0.9644  5.9588
 
      N-E     -0.1742  0.0356  0.0471  0.0411 -0.2865 -0.2171  0.2022  0.0366  0.0409  0.0409  0.0356  0.0412
 
                H13     H14     H15     H16   
      1s       1.2630  1.2646  1.2566  1.2646
      2s       0.0000  0.0000  0.0000  0.0000
      2px      0.0000  0.0000  0.0000  0.0000
      2pz      0.0000  0.0000  0.0000  0.0000
      2py      0.0000  0.0000  0.0000  0.0000
      *s      -0.3349 -0.3291 -0.3347 -0.3300
      *px      0.0055  0.0075  0.0061  0.0070
      *pz      0.0054  0.0153  0.0163  0.0156
      *py      0.0199  0.0080  0.0088  0.0083
      *d2+     0.0000  0.0000  0.0000  0.0000
      *d1+     0.0000  0.0000  0.0000  0.0000
      *d0      0.0000  0.0000  0.0000  0.0000
      *d1-     0.0000  0.0000  0.0000  0.0000
      *d2-     0.0000  0.0000  0.0000  0.0000
      Total    0.9588  0.9663  0.9530  0.9655
 
      N-E      0.0412  0.0337  0.0470  0.0345
 
      Total electronic charge=   50.000000
 
      Total            charge=   -0.000000
--
 
 

      Expectation values of various properties for root number:  1
      -----------------------------------------------------------
 
 
++    Molecular properties:
      ---------------------
 
      Charge (e):
                      =   -0.0000
      Dipole Moment (Debye):
      Origin of the operator (Ang)=    0.0000    0.0000    0.0000
                   X=  3.3659E-02               Y= -2.2855E-01               Z= -3.2766E+00           Total=  3.2848E+00
      Quadrupole Moment (Debye*Ang):
      Origin of the operator (Ang)=   -0.0235    0.1479    0.1802
                  XX= -3.7531E+01              XY=  1.9134E+00              XZ=  1.3996E+00              YY= -3.9029E+01
                  YZ= -2.3922E+00              ZZ= -4.5167E+01
      In traceless form (Debye*Ang)
                  XX=  4.5669E+00              XY=  2.8701E+00              XZ=  2.0994E+00              YY=  2.3204E+00
                  YZ= -3.5883E+00              ZZ= -6.8872E+00
--
 
      Von Neumann Entropy (Root   2) =  0.99999
 

      Mulliken population analysis for root number:  2
      -----------------------------------------------
 
 
++    Molecular charges:
      ------------------
 
      Mulliken charges per centre and basis function type
      ---------------------------------------------------
 
                C1      C2      H3      H4      O1      O2      H7      C8      H9      H10     H11     C12   
      1s       2.0042  2.0039  1.2562  1.2628  2.0016  2.0008  1.0281  2.0039  1.2625  1.2625  1.2650  2.0039
      2s       1.3920  1.4471  0.0000  0.0000  1.8774  1.9006  0.0000  1.4511  0.0000  0.0000  0.0000  1.4465
      2px      1.0691  1.1668  0.0000  0.0000  1.2031  1.6526  0.0000  1.1650  0.0000  0.0000  0.0000  1.0797
      2pz      0.9059  1.1778  0.0000  0.0000  1.5736  1.1920  0.0000  1.1247  0.0000  0.0000  0.0000  1.1767
      2py      1.0536  1.0912  0.0000  0.0000  1.5549  1.5306  0.0000  1.1555  0.0000  0.0000  0.0000  1.1747
      *s      -0.1810 -0.4386 -0.3362 -0.3347  0.0217 -0.0612 -0.3144 -0.4468 -0.3343 -0.3343 -0.3317 -0.4377
      *px     -0.0736 -0.1757  0.0070  0.0211  0.0132  0.0253  0.0249 -0.1756  0.0062  0.0212  0.0071 -0.1867
      *pz     -0.0933 -0.1781  0.0161  0.0054  0.0049 -0.0228  0.0301 -0.1942  0.0046  0.0047  0.0166 -0.1787
      *py     -0.0724 -0.1863  0.0080  0.0043  0.0260 -0.0041  0.0289 -0.1770  0.0201  0.0050  0.0074 -0.1758
      *d2+     0.0329  0.0178  0.0000  0.0000  0.0008  0.0005  0.0000  0.0171  0.0000  0.0000  0.0000  0.0171
      *d1+     0.0305  0.0055  0.0000  0.0000  0.0025  0.0018  0.0000  0.0087  0.0000  0.0000  0.0000  0.0095
      *d0      0.0429  0.0122  0.0000  0.0000  0.0029  0.0004  0.0000  0.0137  0.0000  0.0000  0.0000  0.0120
      *d1-     0.0376  0.0124  0.0000  0.0000  0.0032  0.0030  0.0000  0.0121  0.0000  0.0000  0.0000  0.0086
      *d2-     0.0249  0.0086  0.0000  0.0000  0.0009  0.0014  0.0000  0.0053  0.0000  0.0000  0.0000  0.0090
      Total    6.1734  5.9645  0.9512  0.9589  8.2864  8.2209  0.7976  5.9633  0.9591  0.9591  0.9644  5.9590
 
      N-E     -0.1734  0.0355  0.0488  0.0411 -0.2864 -0.2209  0.2024  0.0367  0.0409  0.0409  0.0356  0.0410
 
                H13     H14     H15     H16   
      1s       1.2629  1.2645  1.2568  1.2645
      2s       0.0000  0.0000  0.0000  0.0000
      2px      0.0000  0.0000  0.0000  0.0000
      2pz      0.0000  0.0000  0.0000  0.0000
      2py      0.0000  0.0000  0.0000  0.0000
      *s      -0.3349 -0.3291 -0.3361 -0.3300
      *px      0.0055  0.0075  0.0061  0.0070
      *pz      0.0054  0.0153  0.0163  0.0156
      *py      0.0199  0.0080  0.0088  0.0083
      *d2+     0.0000  0.0000  0.0000  0.0000
      *d1+     0.0000  0.0000  0.0000  0.0000
      *d0      0.0000  0.0000  0.0000  0.0000
      *d1-     0.0000  0.0000  0.0000  0.0000
      *d2-     0.0000  0.0000  0.0000  0.0000
      Total    0.9588  0.9663  0.9518  0.9654
 
      N-E      0.0412  0.0337  0.0482  0.0346
 
      Total electronic charge=   50.000000
 
      Total            charge=   -0.000000
--
 
 

      Expectation values of various properties for root number:  2
      -----------------------------------------------------------
 
 
++    Molecular properties:
      ---------------------
 
      Charge (e):
                      =   -0.0000
      Dipole Moment (Debye):
      Origin of the operator (Ang)=    0.0000    0.0000    0.0000
                   X=  4.2244E-02               Y= -2.3960E-01               Z= -3.2878E+00           Total=  3.2968E+00
      Quadrupole Moment (Debye*Ang):
      Origin of the operator (Ang)=   -0.0235    0.1479    0.1802
                  XX= -3.7987E+01              XY=  1.1621E+00              XZ=  1.8113E+00              YY= -3.9178E+01
                  YZ= -2.8194E+00              ZZ= -4.4543E+01
      In traceless form (Debye*Ang)
                  XX=  3.8731E+00              XY=  1.7431E+00              XZ=  2.7169E+00              YY=  2.0872E+00
                  YZ= -4.2292E+00              ZZ= -5.9603E+00
--
 
      Von Neumann Entropy (Root   3) =  0.99999
 

      Mulliken population analysis for root number:  3
      -----------------------------------------------
 
 
++    Molecular charges:
      ------------------
 
      Mulliken charges per centre and basis function type
      ---------------------------------------------------
 
                C1      C2      H3      H4      O1      O2      H7      C8      H9      H10     H11     C12   
      1s       2.0042  2.0039  1.2560  1.2626  2.0016  2.0008  1.0301  2.0039  1.2628  1.2627  1.2617  2.0039
      2s       1.3920  1.4478  0.0000  0.0000  1.8768  1.9006  0.0000  1.4489  0.0000  0.0000  0.0000  1.4483
      2px      1.0680  1.1663  0.0000  0.0000  1.6799  1.2184  0.0000  1.1639  0.0000  0.0000  0.0000  1.0891
      2pz      0.9068  1.1777  0.0000  0.0000  1.3399  1.7360  0.0000  1.1159  0.0000  0.0000  0.0000  1.1764
      2py      1.0539  1.0950  0.0000  0.0000  1.3193  1.4132  0.0000  1.1537  0.0000  0.0000  0.0000  1.1745
      *s      -0.1811 -0.4389 -0.3347 -0.3330  0.0219 -0.0612 -0.3187 -0.4464 -0.3353 -0.3347 -0.3318 -0.4382
      *px     -0.0726 -0.1759  0.0070  0.0211  0.0305  0.0094  0.0199 -0.1758  0.0062  0.0212  0.0070 -0.1868
      *pz     -0.0923 -0.1779  0.0162  0.0054 -0.0040 -0.0022  0.0356 -0.1948  0.0047  0.0047  0.0165 -0.1779
      *py     -0.0731 -0.1861  0.0081  0.0042  0.0161 -0.0099  0.0274 -0.1771  0.0201  0.0050  0.0073 -0.1758
      *d2+     0.0388  0.0178  0.0000  0.0000  0.0008  0.0003  0.0000  0.0171  0.0000  0.0000  0.0000  0.0171
      *d1+     0.0332  0.0055  0.0000  0.0000  0.0025  0.0017  0.0000  0.0086  0.0000  0.0000  0.0000  0.0096
      *d0      0.0345  0.0121  0.0000  0.0000  0.0028  0.0007  0.0000  0.0138  0.0000  0.0000  0.0000  0.0120
      *d1-     0.0374  0.0124  0.0000  0.0000  0.0032  0.0029  0.0000  0.0119  0.0000  0.0000  0.0000  0.0087
      *d2-     0.0247  0.0085  0.0000  0.0000  0.0008  0.0015  0.0000  0.0053  0.0000  0.0000  0.0000  0.0089
      Total    6.1744  5.9683  0.9525  0.9603  8.2920  8.2122  0.7942  5.9488  0.9584  0.9590  0.9608  5.9699
 
      N-E     -0.1744  0.0317  0.0475  0.0397 -0.2920 -0.2122  0.2058  0.0512  0.0416  0.0410  0.0392  0.0301
 
                H13     H14     H15     H16   
      1s       1.2626  1.2676  1.2565  1.2656
      2s       0.0000  0.0000  0.0000  0.0000
      2px      0.0000  0.0000  0.0000  0.0000
      2pz      0.0000  0.0000  0.0000  0.0000
      2py      0.0000  0.0000  0.0000  0.0000
      *s      -0.3332 -0.3289 -0.3351 -0.3299
      *px      0.0054  0.0076  0.0062  0.0070
      *pz      0.0054  0.0153  0.0163  0.0156
      *py      0.0199  0.0080  0.0088  0.0083
      *d2+     0.0000  0.0000  0.0000  0.0000
      *d1+     0.0000  0.0000  0.0000  0.0000
      *d0      0.0000  0.0000  0.0000  0.0000
      *d1-     0.0000  0.0000  0.0000  0.0000
      *d2-     0.0000  0.0000  0.0000  0.0000
      Total    0.9602  0.9696  0.9526  0.9667
 
      N-E      0.0398  0.0304  0.0474  0.0333
 
      Total electronic charge=   50.000000
 
      Total            charge=   -0.000000
--
 
 

      Expectation values of various properties for root number:  3
      -----------------------------------------------------------
 
 
++    Molecular properties:
      ---------------------
 
      Charge (e):
                      =   -0.0000
      Dipole Moment (Debye):
      Origin of the operator (Ang)=    0.0000    0.0000    0.0000
                   X=  1.7162E-01               Y= -3.3709E-01               Z= -3.3312E+00           Total=  3.3526E+00
      Quadrupole Moment (Debye*Ang):
      Origin of the operator (Ang)=   -0.0235    0.1479    0.1802
                  XX= -3.8204E+01              XY=  1.0409E+00              XZ=  1.0365E+00              YY= -3.8740E+01
                  YZ= -1.7095E+00              ZZ= -4.4329E+01
      In traceless form (Debye*Ang)
                  XX=  3.3308E+00              XY=  1.5613E+00              XZ=  1.5548E+00              YY=  2.5258E+00
                  YZ= -2.5642E+00              ZZ= -5.8567E+00
--
 
      Von Neumann Entropy (Root   4) =  0.99807
 

      Mulliken population analysis for root number:  4
      -----------------------------------------------
 
 
++    Molecular charges:
      ------------------
 
      Mulliken charges per centre and basis function type
      ---------------------------------------------------
 
                C1      C2      H3      H4      O1      O2      H7      C8      H9      H10     H11     C12   
      1s       2.0042  2.0039  1.2563  1.2626  2.0016  2.0008  1.0301  2.0039  1.2628  1.2627  1.2617  2.0039
      2s       1.3920  1.4478  0.0000  0.0000  1.8768  1.9006  0.0000  1.4489  0.0000  0.0000  0.0000  1.4483
      2px      1.0680  1.1663  0.0000  0.0000  1.6804  1.6758  0.0000  1.1639  0.0000  0.0000  0.0000  1.0891
      2pz      0.9068  1.1776  0.0000  0.0000  1.3400  1.1858  0.0000  1.1159  0.0000  0.0000  0.0000  1.1764
      2py      1.0539  1.0949  0.0000  0.0000  1.3184  1.5085  0.0000  1.1537  0.0000  0.0000  0.0000  1.1744
      *s      -0.1810 -0.4388 -0.3369 -0.3329  0.0219 -0.0611 -0.3191 -0.4464 -0.3353 -0.3347 -0.3318 -0.4380
      *px     -0.0728 -0.1758  0.0070  0.0211  0.0305  0.0261  0.0250 -0.1758  0.0062  0.0212  0.0070 -0.1868
      *pz     -0.0929 -0.1777  0.0161  0.0054 -0.0040 -0.0228  0.0295 -0.1949  0.0047  0.0047  0.0165 -0.1778
      *py     -0.0732 -0.1862  0.0081  0.0042  0.0161 -0.0048  0.0285 -0.1771  0.0201  0.0050  0.0073 -0.1757
      *d2+     0.0387  0.0178  0.0000  0.0000  0.0008  0.0005  0.0000  0.0171  0.0000  0.0000  0.0000  0.0171
      *d1+     0.0332  0.0055  0.0000  0.0000  0.0025  0.0018  0.0000  0.0086  0.0000  0.0000  0.0000  0.0096
      *d0      0.0345  0.0121  0.0000  0.0000  0.0028  0.0004  0.0000  0.0138  0.0000  0.0000  0.0000  0.0120
      *d1-     0.0374  0.0124  0.0000  0.0000  0.0032  0.0030  0.0000  0.0119  0.0000  0.0000  0.0000  0.0087
      *d2-     0.0248  0.0085  0.0000  0.0000  0.0008  0.0014  0.0000  0.0053  0.0000  0.0000  0.0000  0.0089
      Total    6.1737  5.9684  0.9506  0.9604  8.2919  8.2159  0.7940  5.9487  0.9584  0.9590  0.9608  5.9701
 
      N-E     -0.1737  0.0316  0.0494  0.0396 -0.2919 -0.2159  0.2060  0.0513  0.0416  0.0410  0.0392  0.0299
 
                H13     H14     H15     H16   
      1s       1.2626  1.2676  1.2567  1.2656
      2s       0.0000  0.0000  0.0000  0.0000
      2px      0.0000  0.0000  0.0000  0.0000
      2pz      0.0000  0.0000  0.0000  0.0000
      2py      0.0000  0.0000  0.0000  0.0000
      *s      -0.3332 -0.3289 -0.3360 -0.3299
      *px      0.0054  0.0076  0.0062  0.0070
      *pz      0.0054  0.0153  0.0162  0.0156
      *py      0.0199  0.0080  0.0088  0.0083
      *d2+     0.0000  0.0000  0.0000  0.0000
      *d1+     0.0000  0.0000  0.0000  0.0000
      *d0      0.0000  0.0000  0.0000  0.0000
      *d1-     0.0000  0.0000  0.0000  0.0000
      *d2-     0.0000  0.0000  0.0000  0.0000
      Total    0.9602  0.9696  0.9518  0.9667
 
      N-E      0.0398  0.0304  0.0482  0.0333
 
      Total electronic charge=   50.000000
 
      Total            charge=   -0.000000
--
 
 

      Expectation values of various properties for root number:  4
      -----------------------------------------------------------
 
 
++    Molecular properties:
      ---------------------
 
      Charge (e):
                      =   -0.0000
      Dipole Moment (Debye):
      Origin of the operator (Ang)=    0.0000    0.0000    0.0000
                   X=  1.8127E-01               Y= -3.4909E-01               Z= -3.3411E+00           Total=  3.3642E+00
      Quadrupole Moment (Debye*Ang):
      Origin of the operator (Ang)=   -0.0235    0.1479    0.1802
                  XX= -3.8716E+01              XY=  3.0126E-01              XZ=  1.3959E+00              YY= -3.8837E+01
                  YZ= -2.1743E+00              ZZ= -4.3692E+01
      In traceless form (Debye*Ang)
                  XX=  2.5484E+00              XY=  4.5189E-01              XZ=  2.0939E+00              YY=  2.3664E+00
                  YZ= -3.2615E+00              ZZ= -4.9149E+00
--
 
 
      Input file to MOLDEN was generated!
 
 
      Input file to MOLDEN was generated!
 
 
      Input file to MOLDEN was generated!
 
 
      Input file to MOLDEN was generated!
 
 
      Input file to MOLDEN was generated!
 
      Average orbitals are written to the RASORB file
      Natural orbitals for root   1 are written to the RASORB.1 file
      Natural orbitals for root   2 are written to the RASORB.2 file
      Natural orbitals for root   3 are written to the RASORB.3 file
      Natural orbitals for root   4 are written to the RASORB.4 file
      Spin density orbitals for root   1 are written to the SPDORB.1 file
      Spin density orbitals for root   2 are written to the SPDORB.2 file
      Spin density orbitals for root   3 are written to the SPDORB.3 file
      Spin density orbitals for root   4 are written to the SPDORB.4 file
 
--- Stop Module: last_energy at Wed Jul  8 14:47:48 2026 /rc=_RC_ALL_IS_WELL_ ---
*** files: relaxed_scan_tbhp_casscf.rasscf.molden relaxed_scan_tbhp_casscf.rasscf.molden.1 relaxed_scan_tbhp_casscf.rasscf.molden.2 relaxed_scan_tbhp_casscf.rasscf.molden.3
           relaxed_scan_tbhp_casscf.rasscf.molden.4 relaxed_scan_tbhp_casscf.RasOrb relaxed_scan_tbhp_casscf.RasOrb.1 relaxed_scan_tbhp_casscf.RasOrb.2
           relaxed_scan_tbhp_casscf.RasOrb.3 relaxed_scan_tbhp_casscf.RasOrb.4 relaxed_scan_tbhp_casscf.SpdOrb.1 relaxed_scan_tbhp_casscf.SpdOrb.2 relaxed_scan_tbhp_casscf.SpdOrb.3
           relaxed_scan_tbhp_casscf.SpdOrb.4 xmldump
    saved to directory /vscratch/grp-cyberwksp21/hclifford/openmolcas/PES/runs_relaxed_s1/R_2p80
--- Module last_energy spent 35 seconds ---

>>> END DO

.##################.
.# Happy landing! #.
.##################.

    Timing: Wall=1642.62 User=1284.33 System=259.58
