   This run of MOLCAS is using the pymolcas driver

                             OPE
                             OPE          NMOL  CASOP  ENMOLC A   SO
                 OPE        NMOLC        AS  OP EN  MO LC     AS  OP
                OPENM       OL CA        SO  PE NM  OL CA     SOP EN
                OP EN      MO   LC       AS  OP ENMOL  CASO   PENMOL
                OP  EN     MO   LC       AS  OP EN     MO     LC ASO
               OP   E  NMOL  C  AS       OP  EN MO     LC     AS  OP
               OP  E   NMO   LC AS        OPEN  MO     LCASOP EN   M
               O  PEN   MO  LCA  SO
            OPE   NMO   L   CAS    OP
        OPENMOL  CASOP     ENMOL   CASOPE
     OPENMOLCA   SOPENMOLCASOPEN   MOLCASOPE
    OPENMOLCAS   OP           EN   MOL    CAS
    OPENMOLCAS       OP  ENM        O     LCA
    OPENMOLCAS    OPEN  MOLCASO     P  E  NMO
    OPENMOLCAS     OP               E  N  MOL
    OPENMOLCA   SO           PENM   O  L  CAS    OPEN    MO    LCAS
    OPENMOLCA   SOP           ENM   O  L  CAS   OP  EN  MOLC  AS   O
    OPENMOLCA   SOPE           NM      O  LCA   S      OP  EN MO
    OPENMOLC                AS         O  PEN   M      OL  CA  SOPE
    OPENMO        LCASOPE  NMOL        C  ASO   P      ENMOLC     AS
    OPE     NMO      LCA  SO     P     E   NM   OL  CA SO  PE N   MO
          OPENMOLCA            SOPE   NMO        LCAS  O    P  ENMO
     OPENMOLCASOPENMOLCASOPENMOLCASOPENMOLCA
        OPENMOLCASOPENMOLCASOPENMOLCASOPE
            OPENMOLCASOPENMOLCASOPENM
               OPENMOLCASOPENMOLCA        version: v23.10 ?
                   OPENMOLCASO
                       OPE                tag:

 OpenMolcas is free software; you can redistribute it and/or modify it
 under the terms of the GNU Lesser General Public License version 2.1.
 OpenMolcas is distributed in the hope that it will be useful, but it
 is provided "as is" and without any express or implied warranties.
 For more details see the full text of the license in the file
 LICENSE or in <http://www.gnu.org/licenses/>.

                 Copyright (C) The OpenMolcas Authors
           For the author list and the recommended citation,
                   consult the file CONTRIBUTORS.md

           *************************************************
           * pymolcas version py2.25                       *
           *   build 2b27fa14244bdc32cb1957e6230cd793      *
           *   (after the EMIL interpreter by V. Veryazov) *
           *************************************************

configuration info
------------------
Host name: cpn-h22-29.core.ccr.buffalo.edu (Linux)
C Compiler ID: Intel
C flags: -O2 -xCore-AVX512 -ftz -fp-speculation=safe -fp-model source -std=gnu99 -gcc-sys -qopenmp
Fortran Compiler ID: Intel
Fortran flags: -O2 -xCore-AVX512 -ftz -fp-speculation=safe -fp-model source  -fpp -i8 -heap-arrays -qopenmp
Definitions: _MOLCAS_;_I8_;_LINUX_;_MOLCAS_MPP_;_SCALAPACK_;_GA_
Parallel: ON (GA=ON)


   -----------------------------------------------------------------------------------------------------------------------------------------------------
  |
  |           Project: relaxed_scan_tbhp_casscf
  |    Submitted from: /vscratch/grp-cyberwksp21/hclifford/openmolcas/PES/runs_relaxed_s1/R_1p60
  |      Scratch area: /vscratch/grp-cyberwksp21/hclifford/openmolcas/PES/runs_relaxed_s1/R_1p60/molcas_scratch_R_1p60/relaxed_scan_tbhp_casscf
  |   Save outputs to: /vscratch/grp-cyberwksp21/hclifford/openmolcas/PES/runs_relaxed_s1/R_1p60
  |            Molcas: /cvmfs/soft.ccr.buffalo.edu/versions/2023.01/easybuild/software/avx512/MPI/intel/2022.0.1/impi/2021.5.0/openmolcas/23.10
  |
  | Scratch area is empty
  |
  |    MOLCAS_DRIVER = /cvmfs/soft.ccr.buffalo.edu/versions/2023.01/easybuild/software/avx512/MPI/intel/2022.0.1/impi/2021.5.0/openmolcas/23.10/pymolcas
  |    MOLCAS_MOLDEN = ON
  |    MOLCAS_NPROCS = 1
  |     MOLCAS_PRINT = NORMAL
  |    MOLCAS_SOURCE = /cvmfs/soft.ccr.buffalo.edu/versions/2023.01/easybuild/software/avx512/MPI/intel/2022.0.1/impi/2021.5.0/openmolcas/23.10
  | MOLCAS_STRUCTURE = 0
  |
   -----------------------------------------------------------------------------------------------------------------------------------------------------

++ ---------   Input file   ---------

&GATEWAY
  Coord = tbhp.xyz
  Basis = cc-pVDZ
  Group = NoSymm
  Constraints
    rOO = Bond O1 O2
  Values
    rOO = 1.60 Angstrom
  End of Constraints

>>> DO WHILE

  &SEWARD

  &RASSCF
    Spin = 1
    NActEl = 6 0 0
    Inactive = 22
    Ras2 = 4
    CiRoot = 4 4 1
    RlxRoot = 2
    LumOrb
    LevShift = 1.0

  &ALASKA

  &SLAPAF

>>> END DO

-- ----------------------------------

--- Start Module: gateway at Wed Jul  8 11:48:26 2026 ---
 
()()()()()()()()()()()()()()()()()()()()()()()()()()()()()()()()()()()()()()()()()()()()()()()()()()

                                              &GATEWAY

                       only a single process is used, running in SERIAL mode
                        available to each process: 12 GB of memory, 1 thread
                                            pid: 229160
()()()()()()()()()()()()()()()()()()()()()()()()()()()()()()()()()()()()()()()()()()()()()()()()()()
 
 
++    Symmetry information:
      ---------------------
 
                    Character Table for C1 
 
                             E  
                    a        1  x, y, xy, Rz, z, xz, Ry, yz, Rx, I
--
 
 
++    Basis set information:
      ----------------------
 
 
      Basis set label: C.CC-PVDZ.........
 
      Electronic valence basis set:
      ------------------
      Associated Effective Charge   6.000000 au
      Associated Actual Charge      6.000000 au
      Nuclear Model: Point charge
 
      Shell  nPrim  nBasis  Cartesian Spherical Contaminant
         s       9       3        X                  
         p       4       2        X                  
         d       1       1                 X         
 
 
      Basis set label: H.CC-PVDZ.........
 
      Electronic valence basis set:
      ------------------
      Associated Effective Charge   1.000000 au
      Associated Actual Charge      1.000000 au
      Nuclear Model: Point charge
 
      Shell  nPrim  nBasis  Cartesian Spherical Contaminant
         s       4       2        X                  
         p       1       1        X                  
 
 
      Basis set label: O.CC-PVDZ.........
 
      Electronic valence basis set:
      ------------------
      Associated Effective Charge   8.000000 au
      Associated Actual Charge      8.000000 au
      Nuclear Model: Point charge
 
      Shell  nPrim  nBasis  Cartesian Spherical Contaminant
         s       9       3        X                  
         p       4       2        X                  
         d       1       1                 X         
 
 
      Basis set label: H.CC-PVDZ.........
 
      Electronic valence basis set:
      ------------------
      Associated Effective Charge   1.000000 au
      Associated Actual Charge      1.000000 au
      Nuclear Model: Point charge
 
      Shell  nPrim  nBasis  Cartesian Spherical Contaminant
         s       4       2        X                  
         p       1       1        X                  
 
 
      Basis set label: C.CC-PVDZ.........
 
      Electronic valence basis set:
      ------------------
      Associated Effective Charge   6.000000 au
      Associated Actual Charge      6.000000 au
      Nuclear Model: Point charge
 
      Shell  nPrim  nBasis  Cartesian Spherical Contaminant
         s       9       3        X                  
         p       4       2        X                  
         d       1       1                 X         
 
 
      Basis set label: H.CC-PVDZ.........
 
      Electronic valence basis set:
      ------------------
      Associated Effective Charge   1.000000 au
      Associated Actual Charge      1.000000 au
      Nuclear Model: Point charge
 
      Shell  nPrim  nBasis  Cartesian Spherical Contaminant
         s       4       2        X                  
         p       1       1        X                  
 
 
      Basis set label: C.CC-PVDZ.........
 
      Electronic valence basis set:
      ------------------
      Associated Effective Charge   6.000000 au
      Associated Actual Charge      6.000000 au
      Nuclear Model: Point charge
 
      Shell  nPrim  nBasis  Cartesian Spherical Contaminant
         s       9       3        X                  
         p       4       2        X                  
         d       1       1                 X         
 
 
      Basis set label: H.CC-PVDZ.........
 
      Electronic valence basis set:
      ------------------
      Associated Effective Charge   1.000000 au
      Associated Actual Charge      1.000000 au
      Nuclear Model: Point charge
 
      Shell  nPrim  nBasis  Cartesian Spherical Contaminant
         s       4       2        X                  
         p       1       1        X                  
--
 
 
++    Molecular structure info:
      -------------------------
 
                    ************************************************ 
                    **** Cartesian Coordinates / Bohr, Angstrom **** 
                    ************************************************ 
 
     Center  Label                x              y              z                     x              y              z
        1      C1              -0.021542       0.141236      -0.863799             -0.011400       0.074739      -0.457103
        2      C2               0.831168       2.894138      -0.976131              0.439835       1.531512      -0.516547
        3      H3               0.063091       3.973818       0.597379              0.033386       2.102854       0.316120
        4      H4               2.889618       3.006368      -0.897928              1.529120       1.590901      -0.475163
        5      O1               1.048443      -1.087412       1.282909              0.554812      -0.575434       0.678886
        6      O2              -0.042991       0.299579       3.737894             -0.022750       0.158530       1.978008
        7      H7               1.263745      -0.351457       4.767996              0.668745      -0.185983       2.523115
        8      C8               1.105388      -1.375518      -3.048072              0.584946      -0.727893      -1.612970
        9      H9               0.556259      -3.358152      -2.914267              0.294360      -1.777058      -1.542164
       10      H10              3.164481      -1.268188      -3.022044              1.674571      -0.671096      -1.599197
       11      H11              0.434286      -0.629140      -4.848329              0.229814      -0.332927      -2.565625
       12      C12             -2.895285      -0.095819      -0.822797             -1.532119      -0.050705      -0.435405
       13      H13             -3.445010      -2.076354      -0.655641             -1.823021      -1.098759      -0.346950
       14      H14             -3.697104       0.662660      -2.566952             -1.956423       0.350665      -1.358373
       15      H15             -3.702320       0.934206       0.764700             -1.959183       0.494360       0.404662
       16      H16              0.198038       3.766686      -2.736247              0.104797       1.993244      -1.447959
 
                    ************************************************* 
                    **** InterNuclear Distances / Bohr, Angstrom **** 
                    ************************************************* 
 
     Atom centers         Bohr        Angstrom
    7 H7        6 O2      1.786762        0.945514
    3 H3        2 C2      2.057082        1.088561
   15 H15      12 C12     2.057280        1.088666
   11 H11       8 C8      2.061161        1.090720
    9 H9        8 C8      2.061622        1.090963
   10 H10       8 C8      2.062053        1.091191
   13 H13      12 C12     2.062197        1.091268
    4 H4        2 C2      2.062990        1.091687
   14 H14      12 C12     2.064025        1.092235
   16 H16       2 C2    
    5 O1        1 C1      2.694958        1.426110
   12 C12       1 C1      2.883795        1.526039
    2 C2        1 C1      2.884130        1.526216
    8 C8        1 C1      2.888177        1.528357
    6 O2        5 O1      3.023562        1.600000
   15 H15      13 H13     3.338719        1.766774
    4 H4        3 H3      3.340833        1.767893
   15 H15      14 H14     3.342704        1.768883
   16 H16       3 H3      3.342780        1.768923
   10 H10       9 H9      3.344008        1.769573
   11 H11      10 H10     3.346292        1.770781
   16 H16       4 H4      3.346954        1.771132
   11 H11       9 H9      3.347086        1.771202
   14 H14      13 H13     3.349457        1.772456
    7 H7        5 O1      3.568447        1.888341
   11 H11       1 C1      4.083839        2.161075
   13 H13       1 C1      4.084258        2.161296
   14 H14       1 C1      4.084405        2.161374
    4 H4        1 C1      4.084728        2.161545
   16 H16       1 C1      4.086339        2.162397
    9 H9        1 C1      4.096827        2.167948
   10 H10       1 C1      4.098200        2.168674
   15 H15       1 C1      4.102308        2.170848
    3 H3        1 C1      4.102547        2.170974
    8 C8        5 O1      4.340927        2.297119
   12 C12       5 O1      4.579328        2.423276
    5 O1        2 C2      4.582926        2.425180
    6 O2        1 C1      4.604467        2.436579
   12 C12       8 C8      4.753406        2.515394
    8 C8        2 C2      4.753746        2.515574
   15 H15       6 O2      4.757449        2.517533
   13 H13       9 H9      4.770174        2.524267
   12 C12       2 C2      4.780148        2.529545
   10 H10       4 H4      4.781134        2.530067
    9 H9        5 O1      4.797374        2.538661
   10 H10       5 O1      4.800304        2.540212
    6 O2        3 H3      4.834678        2.558402
   15 H15       3 H3      4.842061        2.562308
   16 H16      11 H11     4.882622        2.583772
   14 H14      11 H11     4.893037        2.589284
   16 H16      14 H14     4.983550        2.637181
    5 O1        4 H4      4.990492        2.640855
   13 H13       5 O1      4.992705        2.642026
   13 H13       8 C8      5.188547        2.745661
   15 H15       5 O1      5.188952        2.745875
   12 C12       9 H9      5.189434        2.746130
   10 H10       2 C2      5.191827        2.747397
    8 C8        4 H4      5.196876        2.750068
    5 O1        3 H3      5.201626        2.752582
   12 C12       3 H3      5.227890        2.766480
   16 H16       8 C8      5.230945        2.768097
   15 H15       2 C2      5.236825        2.771209
   14 H14       8 C8      5.239235        2.772484
   11 H11       2 C2      5.250231        2.778302
   12 C12      11 H11     5.251227        2.778830
   14 H14       2 C2      5.292963        2.800915
   16 H16      12 C12     5.305553        2.807577
   12 C12       6 O2      5.393683        2.854214
    6 O2        2 C2      5.451415        2.884765
--
 
 
            Nuclear Potential Energy            267.70865511 au
 
--- Stop Module: gateway at Wed Jul  8 11:48:27 2026 /rc=_RC_ALL_IS_WELL_ ---
*** files: xmldump
    saved to directory /vscratch/grp-cyberwksp21/hclifford/openmolcas/PES/runs_relaxed_s1/R_1p60

--- Start Module: seward at Wed Jul  8 11:48:27 2026 ---
 
()()()()()()()()()()()()()()()()()()()()()()()()()()()()()()()()()()()()()()()()()()()()()()()()()()

                                              &SEWARD

                       only a single process is used, running in SERIAL mode
                        available to each process: 12 GB of memory, 1 thread
                                            pid: 229164
()()()()()()()()()()()()()()()()()()()()()()()()()()()()()()()()()()()()()()()()()()()()()()()()()()
 
               SEWARD will generate:
                  Multipole Moment integrals up to order  2
                  Kinetic Energy integrals
                  Nuclear Attraction integrals (point charge)
                  One-Electron Hamiltonian integrals
                  Velocity integrals
                  Orbital angular momentum around ( 0.0225  0.1206  0.0020 )
                  Velocity quadrupole around ( 0.0225  0.1206  0.0020 )
                  Two-Electron Repulsion integrals
 
                   Integrals are discarded if absolute value <: 0.10E-13
                   Integral cutoff threshold is set to       <: 0.10E-15
 
            Nuclear Potential Energy            267.70865511 au
 
 
      Basis set specifications :
      Symmetry species         a  
      Basis functions          134
 
 
      Input file to MOLDEN was generated!
 
--- Stop Module: seward at Wed Jul  8 11:48:45 2026 /rc=_RC_ALL_IS_WELL_ ---
*** files: relaxed_scan_tbhp_casscf.GssOrb relaxed_scan_tbhp_casscf.guessorb.h5 relaxed_scan_tbhp_casscf.guessorb.molden xmldump
    saved to directory /vscratch/grp-cyberwksp21/hclifford/openmolcas/PES/runs_relaxed_s1/R_1p60
--- Module seward spent 18 seconds ---

*** symbolic link created: INPORB -> relaxed_scan_tbhp_casscf.GssOrb
--- Start Module: rasscf at Wed Jul  8 11:48:45 2026 ---
 
()()()()()()()()()()()()()()()()()()()()()()()()()()()()()()()()()()()()()()()()()()()()()()()()()()

                                              &RASSCF

                       only a single process is used, running in SERIAL mode
                        available to each process: 12 GB of memory, 1 thread
                                            pid: 229168
()()()()()()()()()()()()()()()()()()()()()()()()()()()()()()()()()()()()()()()()()()()()()()()()()()
 
 
      Header of the ONEINT file:
      --------------------------
      
      Integrals generated by Gateway/Seward, Wed Jul  8 11:48:27 2026
 
 
      OrdInt status: non-squared
 
 
      Cartesian coordinates in Angstrom:
      -----------------------------------------------------
      No.  Label        X            Y            Z        
      -----------------------------------------------------
       1   C1        -0.01139969   0.07473874  -0.45710275
       2   C2         0.43983524   1.53151203  -0.51654652
       3   H3         0.03338615   2.10285377   0.31611957
       4   H4         1.52912019   1.59090129  -0.47516326
       5   O1         0.55481218  -0.57543356   0.67888606
       6   O2        -0.02275010   0.15853039   1.97800835
       7   H7         0.66874488  -0.18598325   2.52311476
       8   C8         0.58494633  -0.72789299  -1.61297035
       9   H9         0.29435984  -1.77705775  -1.54216375
      10   H10        1.67457144  -0.67109611  -1.59919702
      11   H11        0.22981418  -0.33292659  -2.56562545
      12   C12       -1.53211881  -0.05070542  -0.43540531
      13   H13       -1.82302072  -1.09875916  -0.34695030
      14   H14       -1.95642321   0.35066475  -1.35837253
      15   H15       -1.95918318   0.49436032   0.40466163
      16   H16        0.10479738   1.99324446  -1.44795932
      -----------------------------------------------------
      Nuclear repulsion energy =  267.70865511
 
++    Wave function specifications:
      -----------------------------
 
      Number of closed shell electrons          44
      Number of electrons in active shells       6
      Max number of holes in RAS1 space          0
      Max nr of electrons in RAS3 space          0
      Number of inactive orbitals               22
      Number of active orbitals                  4
      Number of secondary orbitals             108
      Spin quantum number                      0.0
      State symmetry                             1
--
 
++    Orbital specifications:
      -----------------------
 
      Symmetry species                           1
                                                 a
      Frozen orbitals                            0
      Inactive orbitals                         22
      Active orbitals                            4
      RAS1 orbitals                              0
      RAS2 orbitals                              4
      RAS3 orbitals                              0
      Secondary orbitals                       108
      Deleted orbitals                           0
      Number of basis functions                134
--
 
++    CI expansion specifications:
      ----------------------------
 
      Number of CSFs                            10
      Number of determinants                    10
      Number of root(s) required                 4
      Root chosen for geometry opt.              2
      CI roots used                              1     2     3     4
      weights                                0.250 0.250 0.250 0.250
      highest root included in the CI            4
      max. size of the explicit Hamiltonian     10
--
 
++    Optimization specifications:
      ----------------------------
 
      RASSCF algorithm: Conventional
      Maximum number of macro iterations       200
      Maximum number of SX iterations          100
      Threshold for RASSCF energy            0.100E-07
      Threshold for max MO rotation          0.100E+00
      Threshold for max BLB element          0.100E-03
      Level shift parameter                  0.100E+01
      Make Quasi-Newton update
--
 
      The MO-coefficients are taken from the file:
      INPORB                                                                                                                                                                                                                                                          
      Title:Guess orbitals                                                                 
 
      Total molecular charge    0.00
 
      ************************************************************************************************************************
      *                                                                                                                      *
      *                                            Wave function control section                                             *
      *                                                                                                                      *
      ************************************************************************************************************************
 
 
                                         RASSCF iterations: Energy and convergence statistics
                                         ----------------------------------------------------
 
      Iter CI   SX   CI       RASSCF       Energy    max ROT     max BLB   max BLB  Level Ln srch  Step   QN   Walltime
          iter iter root      energy       change     param      element    value   shift minimum  type update hh:mm:ss
 Nr of preliminary CI iterations:   1
        1   1  100    0  -306.00436402    0.00E+00   0.75E-01   22  27 1 -0.25E+00*  0.73   0.00    SX    NO    0:00:03
        2   1   42    0  -306.57628160   -0.57E+00*  0.47E-01   10  39 1  0.94E-01*  0.78   0.00    SX    NO    0:00:01
        3   1   12    0  -306.66863785   -0.92E-01*  0.41E-01   22  27 1 -0.51E-01*  0.78   0.00    SX    NO    0:00:01
        4   1   24    0  -306.69253287   -0.24E-01*  0.35E-01   10  39 1  0.22E-01*  0.78   0.00    SX    NO    0:00:01
        5   1   10    0  -306.70057625   -0.80E-02*  0.43E-01   10  39 1  0.12E-01*  0.78   2.50    LS   YES    0:00:01
        6   1   10    0  -306.70568359   -0.51E-02*  0.48E-01   22  25 1 -0.75E-02*  0.78   1.49    QN   YES    0:00:01
        7   1   10    0  -306.70847851   -0.28E-02*  0.98E-01   22  27 1  0.71E-02*  0.77   2.50    QN   YES    0:00:01
        8   1   10    0  -306.71386418   -0.54E-02*  0.23E+00*  22  27 1  0.13E-01*  0.72   2.50    QN   YES    0:00:01
        9   1   55    0  -306.72236018   -0.85E-02* -0.60E-01   22  27 1  0.42E-01*  0.72   0.85    QN   YES    0:00:01
       10   1  100    0  -306.72323328   -0.87E-03*  0.31E-01   22  27 1  0.50E-01*  0.72   0.77    QN   YES    0:00:02
       11   1   41    0  -306.72315259    0.81E-04*  0.44E-01   22  27 1  0.40E-01*  0.71   0.47    SX   YES    0:00:01
       12   1   48    0  -306.73529761   -0.12E-01*  0.15E+00*  22  27 1  0.22E-01*  0.70   2.50    QN   YES    0:00:01
       13   1   34    0  -306.76010361   -0.25E-01* -0.22E+00*  14  26 1 -0.22E-01*  0.70   2.37    QN   YES    0:00:01
       14   1   26    0  -306.78246388   -0.22E-01* -0.17E+00*  22  27 1 -0.29E-01*  0.70   1.76    QN   YES    0:00:01
       15   1   33    0  -306.79508143   -0.13E-01*  0.61E-01   22  27 1 -0.40E-01*  0.72   1.29    QN   YES    0:00:01
       16   1   21    0  -306.80270812   -0.76E-02* -0.84E-01   22  27 1 -0.33E-01*  0.73   2.36    QN   YES    0:00:01
       17   1   12    0  -306.81346127   -0.11E-01* -0.47E-01   22  27 1 -0.19E-01*  0.75   1.69    LS   YES    0:00:01
       18   1   10    0  -306.81562473   -0.22E-02*  0.21E-01   24  27 1  0.12E-01*  0.76   1.29    QN   YES    0:00:01
       19   1    9    0  -306.81754972   -0.19E-02* -0.20E-01   24  27 1  0.66E-02*  0.76   1.39    QN   YES    0:00:01
       20   1    9    0  -306.81838988   -0.84E-03*  0.18E-01   22  25 1  0.38E-02*  0.76   1.02    QN   YES    0:00:01
       21   1    9    0  -306.81863954   -0.25E-03* -0.86E-02   22  25 1  0.16E-02*  0.75   1.34    QN   YES    0:00:01
       22   1    8    0  -306.81875423   -0.11E-03* -0.80E-02   22  27 1  0.16E-02*  0.75   1.37    QN   YES    0:00:01
       23   1    8    0  -306.81881317   -0.59E-04* -0.55E-02   24  27 1 -0.10E-02*  0.75   1.45    QN   YES    0:00:01
       24   1    8    0  -306.81884699   -0.34E-04* -0.47E-02   22  27 1  0.84E-03*  0.75   1.67    QN   YES    0:00:01
       25   1    8    0  -306.81886541   -0.18E-04*  0.20E-02   26 132 1  0.35E-03*  0.75   1.42    QN   YES    0:00:01
       26   1    7    0  -306.81887120   -0.58E-05* -0.86E-03   26 131 1 -0.24E-03*  0.75   1.47    QN   YES    0:00:01
       27   1    7    0  -306.81887301   -0.18E-05* -0.64E-03   26 131 1 -0.10E-03*  0.75   1.35    QN   YES    0:00:01
       28   1    7    0  -306.81887343   -0.42E-06* -0.33E-03   24  27 1  0.72E-04   0.75   1.41    QN   YES    0:00:01
       29   1    6    0  -306.81887355   -0.12E-06* -0.14E-03   24  27 1  0.35E-04   0.75   1.41    QN   YES    0:00:01
       30   1    6    0  -306.81887358   -0.34E-07* -0.68E-04   12  26 1  0.21E-04   0.75   1.44    QN   YES    0:00:01
       31   1    5    0  -306.81887360   -0.12E-07*  0.41E-04   12  26 1  0.12E-04   0.75   1.45    QN   YES    0:00:01
       32   1    5    0  -306.81887360   -0.46E-08   0.33E-04   14 131 1 -0.57E-05   0.75   1.48    QN   YES    0:00:01
      Convergence after 32 iterations
       33   1    5    0  -306.81887360   -0.19E-08   0.33E-04   24  27 1 -0.31E-05   0.75   1.48    QN   YES    0:00:01
 
      ************************************************************************************************************************
                                                      Wave function printout:
                       occupation of active orbitals, and spin coupling of open shells (u,d: Spin up or down)
      ************************************************************************************************************************
 
      Note: transformation to natural orbitals
      has been made, which may change the order of the CSFs.
 
      printout of CI-coefficients larger than  0.05 for root  1
      energy=    -306.973607
      conf/sym  1111     Coeff  Weight
             1  2220  -0.96239 0.92620
             8  2022   0.26758 0.07160
 
      printout of CI-coefficients larger than  0.05 for root  2
      energy=    -306.833115
      conf/sym  1111     Coeff  Weight
             5  2ud2   0.34818 0.12123
             6  u22d  -0.93581 0.87575
 
      printout of CI-coefficients larger than  0.05 for root  3
      energy=    -306.765514
      conf/sym  1111     Coeff  Weight
             2  22ud  -0.86705 0.75178
             9  ud22   0.49635 0.24637
 
      printout of CI-coefficients larger than  0.05 for root  4
      energy=    -306.703259
      conf/sym  1111     Coeff  Weight
             3  2202   0.53243 0.28348
            10  0222  -0.84557 0.71499
 
      Natural orbitals and occupation numbers for root  1
      sym 1:   1.996939   1.856636   1.999825   0.146601
 
      Natural orbitals and occupation numbers for root  2
      sym 1:   1.121142   1.882156   1.876857   1.119844
 
      Natural orbitals and occupation numbers for root  3
      sym 1:   1.755448   1.755850   1.247527   1.241175
 
      Natural orbitals and occupation numbers for root  4
      sym 1:   0.568953   1.999379   1.432843   1.998825
 
      ************************************************************************************************************************
      *                                                                                                                      *
      *                                                    Final results                                                     *
      *                                                                                                                      *
      ************************************************************************************************************************
 
 
++    Wave function specifications:
      -----------------------------
 
      Number of closed shell electrons          44
      Number of electrons in active shells       6
      Max number of holes in RAS1 space          0
      Max nr of electrons in RAS3 space          0
      Number of inactive orbitals               22
      Number of active orbitals                  4
      Number of secondary orbitals             108
      Spin quantum number                      0.0
      State symmetry                             1
--
 
++    Orbital specifications:
      -----------------------
 
      Symmetry species                           1
                                                 a
      Frozen orbitals                            0
      Inactive orbitals                         22
      Active orbitals                            4
      RAS1 orbitals                              0
      RAS2 orbitals                              4
      RAS3 orbitals                              0
      Secondary orbitals                       108
      Deleted orbitals                           0
      Number of basis functions                134
--
 
++    CI expansion specifications:
      ----------------------------
 
      Number of CSFs                            10
      Number of determinants                    10
      Number of root(s) required                 4
      CI roots used                              1     2     3     4
      weights                                0.250 0.250 0.250 0.250
      highest root included in the CI            4
      Root passed to geometry opt.               2
--
 
++    Final optimization conditions:
      ------------------------------
 
      Average CI energy                            -306.81887360
      RASSCF energy for state  2                   -306.83311507
      Super-CI energy                                -0.00000000
      RASSCF energy change                           -0.00000000
      Max change in MO coefficients              -0.308E-04
      Max non-diagonal density matrix element     0.335E-04
      Maximum BLB matrix element                 -0.314E-05
      (orbital pair  24,  27 in symmetry   1)
      Norm of electronic gradient            0.484E-01
--
 
 
      Final state energy(ies):
      ------------------------
 
::    RASSCF root number  1 Total energy:   -306.97360658
::    RASSCF root number  2 Total energy:   -306.83311507
::    RASSCF root number  3 Total energy:   -306.76551357
::    RASSCF root number  4 Total energy:   -306.70325919
 
++    Molecular orbitals:
      -------------------
 
      Pseudonatural active orbitals and approximate occupation numbers
 
 
 
 
      Molecular orbitals for symmetry species 1: a  
 
 
      Orbital                 1         2         3         4         5         6         7         8         9        10
      Energy           -20.5713  -20.5624  -11.2822  -11.2200  -11.2177  -11.2163   -1.3810   -1.2413   -1.0484   -0.9394
      Occ. No.           2.0000    2.0000    2.0000    2.0000    2.0000    2.0000    2.0000    2.0000    2.0000    2.0000
 
     1 C1     1s        -0.0001   -0.0002   -1.0021    0.0049   -0.0047   -0.0046   -0.0055   -0.0103   -0.0169   -0.0001
     2 C1     2s        -0.0003   -0.0008   -0.0105   -0.0003    0.0004    0.0005    0.2264    0.2979    0.3959    0.0039
     3 C1     *s         0.0002    0.0045    0.0172   -0.0006    0.0005    0.0003   -0.1027   -0.0764    0.0102    0.0007
     4 C1     2px        0.0000    0.0002   -0.0003   -0.0001   -0.0003    0.0001    0.0392    0.0490   -0.0667   -0.1759
     5 C1     *px       -0.0002    0.0012   -0.0003   -0.0005   -0.0007    0.0003   -0.0169   -0.0248    0.0062    0.0065
     6 C1     2py       -0.0001   -0.0002    0.0004   -0.0003   -0.0000   -0.0002   -0.0447   -0.0567    0.0785   -0.1811
     7 C1     *py        0.0004   -0.0015    0.0005   -0.0006   -0.0004   -0.0005    0.0164    0.0309   -0.0058    0.0071
     8 C1     2pz       -0.0001    0.0005   -0.0009    0.0000    0.0000   -0.0003    0.0919    0.0738   -0.1348   -0.0161
     9 C1     *pz        0.0010    0.0017    0.0003   -0.0004    0.0004   -0.0004   -0.0522   -0.0224    0.0206    0.0001
    10 C1     *d2-      -0.0000    0.0000    0.0000    0.0001   -0.0000    0.0001   -0.0065   -0.0060    0.0077   -0.0076
    11 C1     *d1-      -0.0001   -0.0000    0.0000   -0.0000   -0.0000   -0.0001   -0.0112   -0.0119    0.0140    0.0027
    12 C1     *d0       -0.0000    0.0002   -0.0001   -0.0001    0.0001   -0.0000    0.0062    0.0070   -0.0126    0.0024
    13 C1     *d1+       0.0001    0.0000   -0.0000   -0.0001   -0.0000    0.0001    0.0096    0.0103   -0.0124   -0.0029
    14 C1     *d2+      -0.0000    0.0000    0.0000   -0.0001   -0.0001    0.0000   -0.0008   -0.0010    0.0009    0.0242
    15 C2     1s         0.0000   -0.0000   -0.0047   -1.0019    0.0034    0.0022   -0.0014   -0.0015   -0.0118    0.0178
    16 C2     2s         0.0000   -0.0002    0.0004   -0.0104   -0.0006   -0.0007    0.0510    0.0872    0.3704   -0.5760
    17 C2     *s        -0.0003    0.0000   -0.0040    0.0123    0.0014    0.0014   -0.0141   -0.0425   -0.1438    0.1769
    18 C2     2px        0.0000    0.0000    0.0001   -0.0001    0.0001   -0.0001   -0.0060   -0.0066   -0.0325   -0.0194
    19 C2     *px        0.0001   -0.0002    0.0004   -0.0003   -0.0009    0.0002    0.0008    0.0044    0.0180    0.0065
    20 C2     2py        0.0000    0.0002    0.0003   -0.0002    0.0000    0.0001   -0.0299   -0.0399   -0.0686    0.0025
    21 C2     *py       -0.0001   -0.0000    0.0014   -0.0009   -0.0003   -0.0007    0.0052    0.0214    0.0358   -0.0173
    22 C2     2pz       -0.0000   -0.0001    0.0000    0.0002    0.0000    0.0001    0.0088    0.0051   -0.0136   -0.0026
    23 C2     *pz       -0.0000   -0.0003   -0.0004   -0.0002   -0.0001   -0.0006    0.0018   -0.0045    0.0040    0.0060
    24 C2     *d2-      -0.0000    0.0001    0.0000    0.0001    0.0001   -0.0000    0.0017    0.0015    0.0057    0.0002
    25 C2     *d1-       0.0001    0.0000   -0.0000   -0.0000   -0.0000    0.0001   -0.0023   -0.0006    0.0017   -0.0002
    26 C2     *d0       -0.0000    0.0000   -0.0001   -0.0001   -0.0001    0.0000   -0.0027   -0.0036   -0.0045    0.0013
    27 C2     *d1+      -0.0000    0.0001   -0.0000   -0.0000    0.0000   -0.0001   -0.0017   -0.0011    0.0006   -0.0001
    28 C2     *d2+      -0.0000    0.0001   -0.0001   -0.0002    0.0001   -0.0001   -0.0040   -0.0049   -0.0059    0.0017
    29 H3     1s        -0.0001    0.0001    0.0003   -0.0002   -0.0002   -0.0000    0.0124    0.0189    0.1250   -0.2368
    30 H3     *s         0.0002   -0.0001   -0.0000   -0.0010   -0.0001    0.0004   -0.0046   -0.0122   -0.0537    0.1020
    31 H3     *px        0.0000    0.0000    0.0000    0.0002    0.0001   -0.0000    0.0006    0.0009    0.0033   -0.0079
    32 H3     *py        0.0000    0.0001    0.0000   -0.0002    0.0000    0.0000   -0.0017   -0.0009   -0.0067    0.0099
    33 H3     *pz       -0.0000   -0.0000   -0.0000   -0.0004    0.0000    0.0000   -0.0005   -0.0014   -0.0086    0.0148
    34 H4     1s         0.0000   -0.0001    0.0004   -0.0001   -0.0000   -0.0002    0.0128    0.0257    0.1220   -0.2557
    35 H4     *s        -0.0001    0.0001   -0.0003   -0.0011    0.0004   -0.0001   -0.0047   -0.0132   -0.0560    0.1108
    36 H4     *px        0.0000    0.0000    0.0000   -0.0005    0.0000   -0.0000   -0.0016   -0.0025   -0.0110    0.0197
    37 H4     *py        0.0000    0.0001    0.0001    0.0000   -0.0000    0.0000   -0.0007   -0.0009   -0.0016   -0.0001
    38 H4     *pz       -0.0000   -0.0000    0.0000   -0.0000    0.0000    0.0001    0.0004    0.0007   -0.0010    0.0007
    39 O1     1s         0.0027    1.0009    0.0001    0.0000   -0.0000   -0.0000   -0.0094   -0.0029    0.0021    0.0001
    40 O1     2s        -0.0002    0.0039   -0.0002    0.0002   -0.0002   -0.0002    0.6243    0.5126   -0.3844   -0.0080
    41 O1     *s         0.0003   -0.0067   -0.0010   -0.0000    0.0001    0.0002    0.0053   -0.0081   -0.0347   -0.0015
    42 O1     2px        0.0001   -0.0009    0.0002   -0.0000    0.0001   -0.0000   -0.0187   -0.0328   -0.0400   -0.0224
    43 O1     *px       -0.0001    0.0015   -0.0002    0.0000   -0.0002    0.0002    0.0050    0.0037    0.0013    0.0119
    44 O1     2py       -0.0001    0.0010   -0.0002    0.0001   -0.0000    0.0000    0.0250    0.0342    0.0455   -0.0210
    45 O1     *py        0.0002   -0.0018    0.0002   -0.0002    0.0001   -0.0002   -0.0053   -0.0025   -0.0026    0.0113
    46 O1     2pz       -0.0002   -0.0011    0.0002   -0.0000    0.0000    0.0001   -0.0551   -0.1245   -0.0246   -0.0016
    47 O1     *pz        0.0007    0.0018    0.0001   -0.0000    0.0000   -0.0006    0.0013    0.0237    0.0052    0.0001
    48 O1     *d2-      -0.0000    0.0000   -0.0001   -0.0000    0.0000    0.0000   -0.0040   -0.0023   -0.0014   -0.0003
    49 O1     *d1-       0.0001    0.0001   -0.0001    0.0000   -0.0000    0.0000   -0.0016   -0.0079   -0.0019    0.0014
    50 O1     *d0        0.0001   -0.0001    0.0002    0.0000   -0.0000    0.0001    0.0067    0.0021    0.0005    0.0003
    51 O1     *d1+      -0.0001   -0.0000    0.0001   -0.0000    0.0000   -0.0000    0.0021    0.0065    0.0015    0.0015
    52 O1     *d2+      -0.0000    0.0000   -0.0000    0.0000    0.0000   -0.0000   -0.0009   -0.0001   -0.0003    0.0021
    53 O2     1s         1.0005   -0.0029    0.0001    0.0000    0.0000   -0.0001   -0.0047    0.0043    0.0004   -0.0001
    54 O2     2s         0.0025   -0.0003    0.0004    0.0001   -0.0000   -0.0002    0.5859   -0.6780    0.1234    0.0071
    55 O2     *s        -0.0025    0.0008   -0.0007   -0.0000   -0.0002    0.0005   -0.0588    0.0347   -0.0012    0.0017
    56 O2     2px        0.0017   -0.0001   -0.0000    0.0000    0.0000   -0.0000    0.0413   -0.0605    0.0020   -0.0035
    57 O2     *px       -0.0013    0.0002    0.0001   -0.0001   -0.0002    0.0001   -0.0341    0.0362   -0.0024    0.0004
    58 O2     2py       -0.0009    0.0001    0.0000    0.0000    0.0000    0.0000   -0.0166    0.0184    0.0075   -0.0012
    59 O2     *py        0.0009   -0.0002   -0.0001   -0.0001   -0.0000   -0.0001    0.0221   -0.0182   -0.0014    0.0012
    60 O2     2pz        0.0009    0.0001   -0.0001   -0.0001    0.0001    0.0000    0.0368   -0.0989    0.0248   -0.0001
    61 O2     *pz        0.0001   -0.0003    0.0006    0.0001   -0.0002   -0.0002   -0.0056    0.0370   -0.0074   -0.0019
    62 O2     *d2-      -0.0001   -0.0000   -0.0000   -0.0000    0.0000   -0.0000   -0.0028    0.0022    0.0006    0.0000
    63 O2     *d1-      -0.0001    0.0001    0.0000    0.0000    0.0000    0.0000    0.0012    0.0031   -0.0023    0.0003
    64 O2     *d0       -0.0000    0.0001   -0.0001    0.0000   -0.0000    0.0000    0.0023    0.0004   -0.0007   -0.0000
    65 O2     *d1+       0.0002   -0.0000    0.0000    0.0000   -0.0000   -0.0000    0.0006   -0.0050    0.0025    0.0003
    66 O2     *d2+       0.0001    0.0000   -0.0000   -0.0000   -0.0000    0.0000    0.0010   -0.0021    0.0006    0.0001
    67 H7     1s        -0.0004   -0.0003   -0.0001    0.0000    0.0002   -0.0001    0.2270   -0.3061    0.0536    0.0016
    68 H7     *s         0.0007    0.0002   -0.0000   -0.0000   -0.0001    0.0001   -0.1043    0.1467   -0.0284   -0.0004
    69 H7     *px        0.0007    0.0000    0.0001    0.0000   -0.0000    0.0000   -0.0209    0.0271   -0.0044   -0.0002
    70 H7     *py       -0.0003    0.0000   -0.0000    0.0000    0.0000   -0.0000    0.0105   -0.0141    0.0025    0.0002
    71 H7     *pz        0.0004    0.0001   -0.0001   -0.0000   -0.0000    0.0000   -0.0161    0.0184   -0.0028   -0.0001
    72 C8     1s        -0.0001   -0.0000   -0.0046    0.0025   -0.0068    1.0019   -0.0013   -0.0034   -0.0106   -0.0031
    73 C8     2s        -0.0003   -0.0001    0.0000    0.0007   -0.0007    0.0105    0.0457    0.1078    0.3320    0.1031
    74 C8     *s         0.0012   -0.0009   -0.0027   -0.0014    0.0014   -0.0125   -0.0277   -0.0328   -0.1200   -0.0323
    75 C8     2px       -0.0000    0.0001    0.0001    0.0000    0.0002    0.0001   -0.0057   -0.0143   -0.0397   -0.0323
    76 C8     *px       -0.0001   -0.0000    0.0003   -0.0001   -0.0009    0.0004    0.0058    0.0024    0.0169    0.0158
    77 C8     2py        0.0000   -0.0001   -0.0002    0.0002   -0.0000   -0.0001    0.0081    0.0201    0.0519   -0.0268
    78 C8     *py        0.0002    0.0000   -0.0005   -0.0009    0.0001   -0.0006   -0.0076   -0.0032   -0.0226    0.0114
    79 C8     2pz       -0.0000   -0.0002   -0.0002    0.0000   -0.0000   -0.0003    0.0197    0.0458    0.0411    0.0025
    80 C8     *pz        0.0004   -0.0005   -0.0008   -0.0001    0.0002   -0.0006   -0.0038   -0.0132   -0.0228   -0.0041
    81 C8     *d2-      -0.0000   -0.0001   -0.0000   -0.0000   -0.0000    0.0001   -0.0004   -0.0016   -0.0045   -0.0005
    82 C8     *d1-       0.0000   -0.0001    0.0001   -0.0000    0.0000   -0.0002    0.0033    0.0059    0.0065   -0.0015
    83 C8     *d0        0.0000    0.0000    0.0001    0.0001   -0.0001   -0.0001    0.0024    0.0024    0.0009    0.0003
    84 C8     *d1+      -0.0000    0.0001   -0.0001    0.0000   -0.0001    0.0001   -0.0024   -0.0045   -0.0049   -0.0024
    85 C8     *d2+      -0.0000   -0.0000   -0.0000    0.0001    0.0001    0.0000   -0.0003   -0.0006   -0.0013    0.0017
    86 H9     1s        -0.0001    0.0001    0.0003    0.0000   -0.0002    0.0002    0.0102    0.0302    0.1078    0.0677
    87 H9     *s         0.0000   -0.0001   -0.0001   -0.0004   -0.0001    0.0010   -0.0040   -0.0126   -0.0493   -0.0322
    88 H9     *px       -0.0000    0.0000    0.0000    0.0000    0.0001   -0.0002    0.0003    0.0009    0.0016    0.0013
    89 H9     *py       -0.0000   -0.0000   -0.0000    0.0000   -0.0000   -0.0004    0.0013    0.0029    0.0097    0.0036
    90 H9     *pz       -0.0000   -0.0001   -0.0001   -0.0000   -0.0000    0.0001    0.0005    0.0009   -0.0002   -0.0018
    91 H10    1s        -0.0001    0.0001    0.0003    0.0002   -0.0000    0.0002    0.0104    0.0300    0.1080    0.0195
    92 H10    *s         0.0001   -0.0001   -0.0001    0.0001    0.0004    0.0010   -0.0039   -0.0127   -0.0493   -0.0055
    93 H10    *px        0.0000    0.0000    0.0000    0.0000    0.0000    0.0005   -0.0013   -0.0029   -0.0098   -0.0030
    94 H10    *py       -0.0000   -0.0000   -0.0000    0.0001    0.0000    0.0001    0.0001   -0.0002    0.0006   -0.0000
    95 H10    *pz       -0.0000   -0.0001   -0.0001    0.0000    0.0000    0.0001    0.0006    0.0010    0.0002    0.0014
    96 H11    1s        -0.0000   -0.0001    0.0001    0.0002   -0.0002    0.0002    0.0152    0.0225    0.1255    0.0420
    97 H11    *s         0.0001    0.0001   -0.0002    0.0001   -0.0001    0.0011   -0.0021   -0.0131   -0.0608   -0.0185
    98 H11    *px       -0.0000   -0.0000    0.0000    0.0000    0.0001   -0.0002    0.0006    0.0008    0.0034    0.0003
    99 H11    *py        0.0000    0.0001   -0.0000    0.0001    0.0000    0.0002   -0.0006   -0.0009   -0.0038   -0.0019
   100 H11    *pz        0.0000    0.0000   -0.0001   -0.0000    0.0000   -0.0004    0.0011    0.0027    0.0091    0.0031
   101 C12    1s         0.0000   -0.0000   -0.0046    0.0038    1.0019    0.0064   -0.0010   -0.0018   -0.0116   -0.0151
   102 C12    2s         0.0000   -0.0002    0.0003    0.0007    0.0104   -0.0006    0.0524    0.0853    0.3634    0.4847
   103 C12    *s        -0.0004   -0.0000   -0.0039   -0.0014   -0.0123    0.0013   -0.0160   -0.0417   -0.1410   -0.1497
   104 C12    2px       -0.0000   -0.0002   -0.0003    0.0001   -0.0002   -0.0001    0.0316    0.0400    0.0730    0.0023
   105 C12    *px       -0.0000    0.0001   -0.0015   -0.0005   -0.0009    0.0006   -0.0086   -0.0183   -0.0387   -0.0150
   106 C12    2py       -0.0000    0.0000   -0.0001    0.0001   -0.0000    0.0001   -0.0003   -0.0021    0.0165   -0.0275
   107 C12    *py       -0.0001    0.0002   -0.0001   -0.0007   -0.0001   -0.0004    0.0015   -0.0010   -0.0094    0.0139
   108 C12    2pz       -0.0000   -0.0001    0.0000   -0.0000   -0.0002    0.0001    0.0077    0.0026   -0.0180   -0.0044
   109 C12    *pz       -0.0000   -0.0003   -0.0003    0.0001    0.0003   -0.0006   -0.0005   -0.0007    0.0058   -0.0017
   110 C12    *d2-      -0.0000    0.0001   -0.0000   -0.0001   -0.0000   -0.0001   -0.0001   -0.0004    0.0025   -0.0017
   111 C12    *d1-       0.0000   -0.0001    0.0000    0.0000   -0.0000    0.0001    0.0009    0.0012   -0.0004   -0.0001
   112 C12    *d0       -0.0000    0.0000   -0.0001    0.0001    0.0001    0.0000   -0.0027   -0.0040   -0.0042   -0.0013
   113 C12    *d1+      -0.0001   -0.0000   -0.0000    0.0000    0.0000   -0.0001    0.0024    0.0000   -0.0027   -0.0008
   114 C12    *d2+      -0.0000   -0.0000    0.0001    0.0000   -0.0002    0.0000    0.0043    0.0052    0.0076    0.0015
   115 H13    1s         0.0000   -0.0001    0.0004    0.0000    0.0002   -0.0002    0.0132    0.0249    0.1192    0.2215
   116 H13    *s        -0.0001    0.0001   -0.0003   -0.0004    0.0011   -0.0001   -0.0044   -0.0133   -0.0545   -0.0972
   117 H13    *px       -0.0000   -0.0001   -0.0001    0.0000   -0.0000   -0.0000    0.0012    0.0012    0.0039    0.0031
   118 H13    *py        0.0000   -0.0000    0.0000    0.0000   -0.0005    0.0000    0.0014    0.0021    0.0101    0.0163
   119 H13    *pz       -0.0000   -0.0000    0.0000   -0.0000    0.0000    0.0001    0.0006    0.0003   -0.0014   -0.0016
   120 H14    1s         0.0001   -0.0000    0.0002    0.0002    0.0002   -0.0002    0.0068    0.0217    0.1387    0.1982
   121 H14    *s         0.0000    0.0001   -0.0003    0.0001    0.0012   -0.0001   -0.0057   -0.0097   -0.0641   -0.0865
   122 H14    *px        0.0000    0.0001   -0.0001    0.0000   -0.0001   -0.0000    0.0006    0.0016    0.0043    0.0065
   123 H14    *py       -0.0000   -0.0000   -0.0000    0.0001    0.0002    0.0000   -0.0001   -0.0008   -0.0042   -0.0067
   124 H14    *pz        0.0000    0.0000    0.0000   -0.0000   -0.0004    0.0001    0.0003    0.0020    0.0099    0.0136
   125 H15    1s        -0.0001    0.0001    0.0003    0.0002    0.0002   -0.0000    0.0140    0.0169    0.1222    0.1905
   126 H15    *s         0.0002   -0.0000   -0.0000    0.0001    0.0010    0.0004   -0.0073   -0.0086   -0.0531   -0.0814
   127 H15    *px       -0.0000   -0.0001   -0.0001    0.0000   -0.0001   -0.0000    0.0016    0.0004    0.0053    0.0065
   128 H15    *py       -0.0000   -0.0000   -0.0000    0.0001    0.0003    0.0000   -0.0010   -0.0011   -0.0048   -0.0084
   129 H15    *pz       -0.0000   -0.0000    0.0000   -0.0000    0.0004    0.0000   -0.0003   -0.0017   -0.0085   -0.0121
   130 H16    1s         0.0002   -0.0001    0.0002   -0.0002   -0.0002   -0.0002    0.0080    0.0205    0.1415   -0.2353
   131 H16    *s         0.0000    0.0001   -0.0003   -0.0012   -0.0001   -0.0001   -0.0040   -0.0117   -0.0649    0.1022
   132 H16    *px        0.0000   -0.0000    0.0000    0.0002    0.0001   -0.0000    0.0001    0.0003    0.0036   -0.0063
   133 H16    *py       -0.0000   -0.0001    0.0001   -0.0001    0.0000    0.0001   -0.0007   -0.0016   -0.0048    0.0085
   134 H16    *pz        0.0000    0.0000    0.0000    0.0004   -0.0000    0.0001    0.0006    0.0018    0.0102   -0.0165
 
 
      Orbital                11        12        13        14        15        16        17        18        19        20
      Energy            -0.9362   -0.7469   -0.6701   -0.6139   -0.6060   -0.5893   -0.5442   -0.5402   -0.5139   -0.5114
      Occ. No.           2.0000    2.0000    2.0000    2.0000    2.0000    2.0000    2.0000    2.0000    2.0000    2.0000
 
     1 C1     1s         0.0000    0.0005    0.0010    0.0021   -0.0002    0.0007   -0.0000    0.0000   -0.0007    0.0038
     2 C1     2s         0.0023   -0.5385   -0.1578   -0.0007   -0.0026    0.0294    0.0075   -0.0007    0.0137   -0.0659
     3 C1     *s        -0.0046    0.1038   -0.0187   -0.0184    0.0010    0.0070    0.0024    0.0028    0.0119   -0.0617
     4 C1     2px       -0.1529   -0.0180    0.0115    0.2060    0.2645   -0.1277   -0.0583   -0.0849   -0.0374    0.1396
     5 C1     *px        0.0055    0.0262   -0.0141   -0.0308   -0.0245    0.0114   -0.0012    0.0054    0.0087   -0.0526
     6 C1     2py        0.1332    0.0179   -0.0269   -0.2009    0.2552    0.1617   -0.0734    0.0577    0.0334   -0.1576
     7 C1     *py       -0.0039   -0.0367    0.0341    0.0269   -0.0259   -0.0233    0.0004   -0.0106   -0.0143    0.0590
     8 C1     2pz        0.1463   -0.0552    0.2001    0.1428   -0.0041    0.2361   -0.0110    0.0875   -0.0457    0.3058
     9 C1     *pz        0.0012    0.0203    0.0010   -0.0289    0.0022   -0.0277    0.0003   -0.0045    0.0133   -0.0839
    10 C1     *d2-       0.0117    0.0019   -0.0030    0.0019   -0.0012   -0.0070   -0.0083    0.0195    0.0027   -0.0140
    11 C1     *d1-      -0.0155    0.0048   -0.0036   -0.0039   -0.0034    0.0003   -0.0134   -0.0069    0.0051   -0.0296
    12 C1     *d0       -0.0148   -0.0061    0.0070    0.0022    0.0000   -0.0057   -0.0029    0.0096   -0.0055    0.0280
    13 C1     *d1+       0.0107   -0.0042    0.0027    0.0036   -0.0047    0.0025   -0.0189   -0.0044   -0.0045    0.0258
    14 C1     *d2+       0.0074    0.0005   -0.0007    0.0008    0.0034   -0.0023    0.0025    0.0058    0.0008   -0.0020
    15 C2     1s        -0.0059   -0.0093   -0.0006   -0.0005    0.0031    0.0015   -0.0010    0.0003   -0.0000    0.0002
    16 C2     2s         0.2063    0.1843    0.0195    0.0406   -0.0513    0.0036   -0.0141    0.0038    0.0047   -0.0247
    17 C2     *s        -0.0659   -0.0099   -0.0147    0.0084   -0.0127    0.0011    0.0061    0.0020    0.0006   -0.0001
    18 C2     2px       -0.0292    0.0674    0.0188    0.2880    0.0946   -0.2486   -0.1690    0.1438    0.3232   -0.0171
    19 C2     *px        0.0147   -0.0277    0.0039   -0.0609   -0.0233    0.0413    0.0246   -0.0162   -0.0447    0.0089
    20 C2     2py        0.0119    0.2263    0.0967    0.0452   -0.3173   -0.0127    0.1096   -0.0681   -0.1396    0.1589
    21 C2     *py       -0.0001   -0.0634   -0.0275    0.0001    0.0624    0.0126   -0.0231    0.0088    0.0175   -0.0249
    22 C2     2pz        0.0244   -0.0328    0.1317    0.1251   -0.0129    0.2881   -0.4267    0.0258   -0.1388   -0.2349
    23 C2     *pz       -0.0157    0.0086   -0.0401   -0.0300   -0.0058   -0.0629    0.0615   -0.0102    0.0175    0.0383
    24 C2     *d2-       0.0026   -0.0074   -0.0037   -0.0062    0.0058    0.0027   -0.0020    0.0046    0.0052   -0.0076
    25 C2     *d1-      -0.0014    0.0004    0.0007    0.0017   -0.0011    0.0043   -0.0124   -0.0017   -0.0048   -0.0141
    26 C2     *d0       -0.0001    0.0089    0.0025   -0.0048   -0.0122    0.0005    0.0106   -0.0047   -0.0108    0.0083
    27 C2     *d1+      -0.0010    0.0019   -0.0045   -0.0038    0.0002   -0.0091    0.0095   -0.0011    0.0054    0.0046
    28 C2     *d2+       0.0011    0.0120    0.0038    0.0083   -0.0076   -0.0063   -0.0027    0.0051    0.0096    0.0002
    29 H3     1s         0.1110    0.1520    0.1520    0.0274   -0.2296    0.2968   -0.2152   -0.0730   -0.3143   -0.1179
    30 H3     *s        -0.0486   -0.0585   -0.0282   -0.0148    0.0738   -0.1029    0.0641    0.0174    0.0839    0.0246
    31 H3     *px        0.0034    0.0051    0.0037    0.0063   -0.0028    0.0020   -0.0079    0.0018   -0.0001   -0.0025
    32 H3     *py       -0.0025   -0.0013   -0.0047   -0.0004    0.0015   -0.0072    0.0081    0.0013    0.0056    0.0062
    33 H3     *pz       -0.0066   -0.0095   -0.0035    0.0014    0.0109   -0.0082    0.0005    0.0028    0.0108   -0.0001
    34 H4     1s         0.0670    0.1647    0.0369    0.3073    0.0505   -0.2342   -0.1900    0.1479    0.3358   -0.0410
    35 H4     *s        -0.0258   -0.0489   -0.0166   -0.0943   -0.0155    0.0717    0.0551   -0.0402   -0.0834    0.0016
    36 H4     *px       -0.0065   -0.0105   -0.0019   -0.0121   -0.0001    0.0088    0.0068   -0.0047   -0.0114    0.0010
    37 H4     *py       -0.0013    0.0031    0.0017   -0.0010   -0.0052   -0.0002    0.0025   -0.0022   -0.0035    0.0032
    38 H4     *pz        0.0007   -0.0013    0.0027    0.0021   -0.0002    0.0071   -0.0083    0.0007   -0.0037   -0.0045
    39 O1     1s        -0.0003    0.0004   -0.0003    0.0017   -0.0001    0.0009    0.0002    0.0002    0.0003   -0.0015
    40 O1     2s         0.0315    0.2537   -0.0638   -0.1350    0.0070   -0.0163   -0.0086    0.0193    0.0083   -0.0475
    41 O1     *s         0.0050    0.0562   -0.0212   -0.0706    0.0038   -0.0196   -0.0055    0.0040    0.0009   -0.0066
    42 O1     2px       -0.0192    0.1864   -0.1254   -0.1299    0.0605   -0.0371   -0.0228   -0.0292    0.0485   -0.2750
    43 O1     *px        0.0082    0.0022    0.0029   -0.0131   -0.0155    0.0051    0.0070    0.0087    0.0046   -0.0187
    44 O1     2py        0.0157   -0.2093    0.1180    0.1657    0.0388    0.0585   -0.0319    0.0207   -0.0568    0.3189
    45 O1     *py       -0.0062   -0.0009   -0.0046    0.0128   -0.0150   -0.0060    0.0089   -0.0046   -0.0030    0.0208
    46 O1     2pz        0.0093    0.2294   -0.0977   -0.2256    0.0116   -0.0356   -0.0062    0.0154    0.0659   -0.3641
    47 O1     *pz       -0.0040   -0.0087   -0.0106    0.0120   -0.0003   -0.0034    0.0015   -0.0035    0.0031   -0.0181
    48 O1     *d2-      -0.0014    0.0066   -0.0056   -0.0020    0.0005   -0.0018   -0.0003   -0.0003    0.0012   -0.0067
    49 O1     *d1-      -0.0006    0.0087   -0.0013   -0.0067   -0.0026   -0.0035    0.0007   -0.0016    0.0019   -0.0099
    50 O1     *d0       -0.0030   -0.0023   -0.0049    0.0055   -0.0004   -0.0009    0.0010   -0.0022   -0.0005    0.0024
    51 O1     *d1+       0.0007   -0.0070   -0.0007    0.0061   -0.0038    0.0041    0.0004    0.0018   -0.0012    0.0089
    52 O1     *d2+       0.0001    0.0010   -0.0000   -0.0010   -0.0033   -0.0010    0.0020    0.0005   -0.0000   -0.0014
    53 O2     1s         0.0010   -0.0014   -0.0015    0.0022   -0.0001    0.0020    0.0001    0.0010    0.0000    0.0009
    54 O2     2s        -0.0222   -0.1044    0.2157   -0.0502    0.0033   -0.1452   -0.0042   -0.0525   -0.0048   -0.0057
    55 O2     *s        -0.0042   -0.0178    0.1261   -0.0619    0.0038   -0.0927   -0.0053   -0.0332   -0.0013   -0.0228
    56 O2     2px       -0.0256    0.0758   -0.4541    0.2050   -0.0195    0.2639    0.0146    0.0669   -0.0110    0.0990
    57 O2     *px        0.0059   -0.0070    0.0356   -0.0123   -0.0020   -0.0128    0.0014   -0.0029   -0.0002   -0.0042
    58 O2     2py        0.0150   -0.0581    0.2588   -0.0989    0.0059   -0.1339   -0.0211   -0.0378   -0.0059   -0.0304
    59 O2     *py       -0.0033    0.0059   -0.0175    0.0034   -0.0033    0.0037    0.0027    0.0030    0.0003    0.0009
    60 O2     2pz       -0.0203    0.0231   -0.2947    0.1520   -0.0118    0.1731    0.0149    0.0488   -0.0091    0.0979
    61 O2     *pz        0.0134   -0.0076    0.0369   -0.0128    0.0018   -0.0084   -0.0038    0.0035    0.0002   -0.0056
    62 O2     *d2-       0.0004   -0.0032    0.0099   -0.0024    0.0002   -0.0051   -0.0006   -0.0013   -0.0004    0.0003
    63 O2     *d1-       0.0004    0.0019    0.0049   -0.0050    0.0002   -0.0042    0.0001   -0.0006    0.0007   -0.0037
    64 O2     *d0        0.0004   -0.0013    0.0046   -0.0012    0.0002   -0.0013   -0.0003   -0.0000   -0.0004    0.0020
    65 O2     *d1+      -0.0005   -0.0012   -0.0093    0.0069   -0.0007    0.0067    0.0013    0.0018   -0.0004    0.0050
    66 O2     *d2+      -0.0003    0.0003   -0.0058    0.0034   -0.0000    0.0037    0.0005    0.0010    0.0001    0.0023
    67 H7     1s        -0.0409    0.0461   -0.4949    0.2505   -0.0198    0.2879    0.0275    0.0736   -0.0103    0.1383
    68 H7     *s         0.0164   -0.0091    0.1941   -0.1086    0.0078   -0.1139   -0.0107   -0.0275    0.0070   -0.0671
    69 H7     *px        0.0032   -0.0013    0.0231   -0.0121    0.0011   -0.0122   -0.0013   -0.0028    0.0008   -0.0076
    70 H7     *py       -0.0014   -0.0002   -0.0102    0.0065   -0.0003    0.0060    0.0004    0.0015   -0.0005    0.0051
    71 H7     *pz        0.0022   -0.0028    0.0222   -0.0095    0.0008   -0.0107   -0.0011   -0.0024   -0.0002   -0.0024
    72 C8     1s         0.0191   -0.0072   -0.0040    0.0015   -0.0003   -0.0021    0.0004   -0.0014    0.0001   -0.0002
    73 C8     2s        -0.6287    0.1539    0.0807    0.0039    0.0033    0.0491    0.0068   -0.0165    0.0024   -0.0164
    74 C8     *s         0.1985   -0.0435    0.0312    0.0058    0.0003    0.0072   -0.0006    0.0010   -0.0043    0.0185
    75 C8     2px       -0.0115    0.0819    0.0999    0.1295    0.3026    0.1167    0.1984   -0.1505   -0.2838   -0.0867
    76 C8     *px       -0.0002   -0.0193   -0.0295   -0.0343   -0.0619   -0.0194   -0.0231    0.0236    0.0392    0.0105
    77 C8     2py        0.0030   -0.1112   -0.1388   -0.1111    0.2401   -0.1943    0.0111    0.2445   -0.2537   -0.0114
    78 C8     *py        0.0064    0.0272    0.0393    0.0312   -0.0500    0.0335    0.0034   -0.0321    0.0336    0.0035
    79 C8     2pz       -0.0031   -0.1711   -0.1029    0.2181   -0.0426   -0.1427    0.1284   -0.3999    0.0476   -0.2261
    80 C8     *pz        0.0213    0.0428    0.0300   -0.0617    0.0098    0.0269   -0.0229    0.0669   -0.0076    0.0349
    81 C8     *d2-      -0.0001    0.0046    0.0061    0.0067   -0.0017    0.0057    0.0007   -0.0059    0.0033    0.0032
    82 C8     *d1-      -0.0014   -0.0121   -0.0067    0.0068    0.0034   -0.0080    0.0024   -0.0109   -0.0008   -0.0082
    83 C8     *d0       -0.0006   -0.0051   -0.0026   -0.0037   -0.0005   -0.0066   -0.0052    0.0135   -0.0024    0.0118
    84 C8     *d1+       0.0005    0.0092    0.0044   -0.0052    0.0062    0.0056   -0.0047    0.0091   -0.0025    0.0067
    85 C8     *d2+       0.0003    0.0015    0.0019    0.0016    0.0083    0.0006    0.0074    0.0014   -0.0161   -0.0020
    86 H9     1s        -0.2646    0.1443    0.1334    0.0872   -0.3053    0.1681   -0.0536   -0.2353    0.3463    0.0025
    87 H9     *s         0.1135   -0.0448   -0.0448   -0.0284    0.0937   -0.0500    0.0149    0.0690   -0.0878   -0.0098
    88 H9     *px       -0.0061    0.0039    0.0039    0.0039    0.0013    0.0043    0.0033   -0.0065   -0.0008   -0.0015
    89 H9     *py       -0.0202    0.0082    0.0059    0.0017   -0.0121    0.0063   -0.0025   -0.0069    0.0128    0.0003
    90 H9     *pz        0.0016   -0.0036   -0.0020    0.0045    0.0012   -0.0026    0.0024   -0.0071   -0.0008   -0.0045
    91 H10    1s        -0.2727    0.1444    0.1248    0.1261    0.3086    0.1267    0.2095   -0.1548   -0.3124   -0.1148
    92 H10    *s         0.1179   -0.0450   -0.0402   -0.0411   -0.0939   -0.0385   -0.0597    0.0453    0.0819    0.0193
    93 H10    *px        0.0213   -0.0091   -0.0062   -0.0038   -0.0119   -0.0058   -0.0071    0.0050    0.0112    0.0040
    94 H10    *py        0.0017   -0.0021   -0.0027   -0.0028    0.0040   -0.0035   -0.0003    0.0056   -0.0042   -0.0001
    95 H10    *pz        0.0009   -0.0030   -0.0016    0.0045   -0.0019   -0.0021    0.0028   -0.0076    0.0018   -0.0043
    96 H11    1s        -0.2574    0.1537    0.0521   -0.2754    0.0279    0.0415   -0.1798    0.5074   -0.0472    0.2539
    97 H11    *s         0.1133   -0.0471   -0.0146    0.0644   -0.0067   -0.0104    0.0442   -0.1258    0.0099   -0.0515
    98 H11    *px       -0.0070    0.0044    0.0026   -0.0023    0.0065    0.0029    0.0011    0.0056   -0.0067    0.0011
    99 H11    *py        0.0076   -0.0052   -0.0033    0.0032    0.0042   -0.0045    0.0037   -0.0045   -0.0048   -0.0033
   100 H11    *pz       -0.0184    0.0064    0.0018   -0.0094    0.0006    0.0004   -0.0060    0.0163   -0.0011    0.0069
   101 C12    1s        -0.0112   -0.0094   -0.0001   -0.0011   -0.0029    0.0015    0.0009    0.0010    0.0000    0.0001
   102 C12    2s         0.3767    0.1921    0.0035    0.0547    0.0458    0.0027    0.0151    0.0155    0.0061   -0.0230
   103 C12    *s        -0.1184   -0.0147   -0.0056    0.0071    0.0120   -0.0056   -0.0054   -0.0047    0.0005   -0.0010
   104 C12    2px       -0.0036   -0.2367   -0.0653   -0.1491   -0.2615    0.0858    0.0635    0.0909    0.0138   -0.1749
   105 C12    *px       -0.0083    0.0661    0.0273    0.0170    0.0527   -0.0308   -0.0187   -0.0214   -0.0047    0.0236
   106 C12    2py        0.0243   -0.0177    0.0006   -0.2336    0.2182    0.2267   -0.0309   -0.2261    0.3188    0.1598
   107 C12    *py       -0.0113    0.0142   -0.0126    0.0536   -0.0475   -0.0329    0.0113    0.0318   -0.0402   -0.0272
   108 C12    2pz        0.0228   -0.0219    0.1561    0.1179    0.0352    0.2070    0.3651    0.2937    0.2026   -0.1550
   109 C12    *pz       -0.0158    0.0045   -0.0439   -0.0298    0.0007   -0.0510   -0.0529   -0.0496   -0.0292    0.0278
   110 C12    *d2-       0.0025   -0.0017   -0.0017   -0.0022   -0.0015    0.0009   -0.0010    0.0071   -0.0050   -0.0090
   111 C12    *d1-       0.0005   -0.0017    0.0051    0.0032    0.0014    0.0080    0.0104    0.0074    0.0093   -0.0036
   112 C12    *d0       -0.0008    0.0090    0.0014   -0.0027    0.0127   -0.0004   -0.0059   -0.0105    0.0070    0.0105
   113 C12    *d1+       0.0013    0.0008    0.0005    0.0000    0.0006   -0.0009   -0.0101   -0.0057   -0.0067    0.0117
   114 C12    *d2+       0.0007   -0.0141   -0.0040   -0.0117   -0.0074    0.0064    0.0002   -0.0034    0.0071   -0.0005
   115 H13    1s         0.1435    0.1678    0.0286    0.2933   -0.1118   -0.2187    0.0501    0.2307   -0.3074   -0.1483
   116 H13    *s        -0.0594   -0.0510   -0.0123   -0.0913    0.0349    0.0675   -0.0155   -0.0654    0.0812    0.0294
   117 H13    *px        0.0038   -0.0008   -0.0007    0.0028   -0.0056   -0.0011    0.0018    0.0053   -0.0038   -0.0052
   118 H13    *py        0.0118    0.0110    0.0019    0.0116   -0.0013   -0.0083    0.0021    0.0070   -0.0098   -0.0038
   119 H13    *pz       -0.0001   -0.0017    0.0032    0.0011    0.0011    0.0060    0.0071    0.0053    0.0057   -0.0022
   120 H14    1s         0.1521    0.1869   -0.0942   -0.1008    0.1777   -0.1291   -0.3571   -0.3777   -0.0660    0.2913
   121 H14    *s        -0.0660   -0.0635    0.0309    0.0237   -0.0451    0.0281    0.0908    0.0964    0.0124   -0.0560
   122 H14    *px        0.0051    0.0015   -0.0032   -0.0042   -0.0000   -0.0014   -0.0067   -0.0063   -0.0014    0.0039
   123 H14    *py       -0.0039   -0.0051    0.0024   -0.0027    0.0007    0.0071    0.0065    0.0026    0.0080   -0.0012
   124 H14    *pz        0.0112    0.0100   -0.0014   -0.0022    0.0094   -0.0021   -0.0086   -0.0113    0.0016    0.0082
   125 H15    1s         0.1789    0.1535    0.1484    0.0522    0.2530    0.2272    0.2512    0.0817    0.3315    0.0076
   126 H15    *s        -0.0773   -0.0602   -0.0210   -0.0268   -0.0807   -0.0862   -0.0770   -0.0300   -0.0891   -0.0113
   127 H15    *px        0.0036   -0.0003    0.0042   -0.0012    0.0011    0.0046    0.0064    0.0027    0.0066   -0.0034
   128 H15    *py       -0.0070   -0.0055   -0.0048   -0.0062   -0.0029   -0.0021   -0.0074   -0.0070   -0.0026    0.0027
   129 H15    *pz       -0.0110   -0.0096   -0.0026   -0.0003   -0.0118   -0.0071   -0.0033    0.0017   -0.0104   -0.0040
   130 H16    1s         0.0818    0.1828   -0.0591   -0.1563   -0.1806   -0.1790    0.4781   -0.0961   -0.0448    0.3066
   131 H16    *s        -0.0359   -0.0616    0.0185    0.0402    0.0460    0.0434   -0.1256    0.0248    0.0087   -0.0598
   132 H16    *px        0.0012    0.0049   -0.0011    0.0030   -0.0010   -0.0080    0.0043    0.0015    0.0065    0.0032
   133 H16    *py       -0.0028   -0.0020    0.0029    0.0040   -0.0006    0.0043   -0.0091    0.0007   -0.0018   -0.0049
   134 H16    *pz        0.0064    0.0097   -0.0001   -0.0048   -0.0093   -0.0028    0.0133   -0.0041   -0.0048    0.0075
 
 
      Orbital                21        22        23        24        25        26
      Energy            -0.4814   -0.4794   -0.3403    0.0065    0.0003    0.0028
      Occ. No.           2.0000    2.0000    1.3602    1.8719    1.6394    1.1285
 
     1 C1     1s         0.0002    0.0003    0.0003   -0.0039    0.0002    0.0003
     2 C1     2s         0.0025    0.0008   -0.0115   -0.0023   -0.0113   -0.0086
     3 C1     *s        -0.0003    0.0027   -0.0081    0.0063   -0.0107    0.0200
     4 C1     2px       -0.3650    0.2749    0.0366   -0.0139   -0.0595   -0.0078
     5 C1     *px        0.0560   -0.0440   -0.0400   -0.0025   -0.0101    0.0035
     6 C1     2py       -0.3216   -0.3076    0.0411    0.0200   -0.0405    0.0049
     7 C1     *py        0.0502    0.0477   -0.0325    0.0166   -0.0111   -0.0065
     8 C1     2pz        0.0025   -0.2717   -0.0196    0.0594   -0.0159   -0.0765
     9 C1     *pz       -0.0034    0.0247    0.0010    0.0407    0.0020   -0.0123
    10 C1     *d2-      -0.0090   -0.0211    0.0043   -0.0077   -0.0037    0.0114
    11 C1     *d1-      -0.0023    0.0190   -0.0104   -0.0134    0.0113    0.0128
    12 C1     *d0        0.0015    0.0181    0.0005   -0.0141   -0.0004    0.0224
    13 C1     *d1+      -0.0065   -0.0129   -0.0153    0.0107    0.0094   -0.0093
    14 C1     *d2+       0.0326   -0.0074   -0.0208   -0.0009    0.0192    0.0017
    15 C2     1s        -0.0001   -0.0005   -0.0015    0.0005   -0.0004    0.0006
    16 C2     2s        -0.0870   -0.0429    0.0393    0.0224   -0.0701   -0.0158
    17 C2     *s        -0.0259   -0.0073    0.0395   -0.0185   -0.0029   -0.0167
    18 C2     2px        0.2855   -0.0985   -0.0012   -0.0101    0.0104    0.0100
    19 C2     *px       -0.0302    0.0081    0.0094    0.0038    0.0023    0.0110
    20 C2     2py        0.3244    0.2437   -0.0931   -0.0303    0.0799    0.0312
    21 C2     *py       -0.0382   -0.0252   -0.0197   -0.0027   -0.0302   -0.0006
    22 C2     2pz        0.0578    0.1695   -0.0016    0.0074   -0.0450   -0.0017
    23 C2     *pz       -0.0050   -0.0105   -0.0061   -0.0131    0.0201   -0.0053
    24 C2     *d2-      -0.0027   -0.0144    0.0003    0.0011    0.0001    0.0002
    25 C2     *d1-       0.0021    0.0143   -0.0016    0.0003   -0.0016    0.0032
    26 C2     *d0        0.0014    0.0093   -0.0013   -0.0022    0.0033   -0.0003
    27 C2     *d1+      -0.0021   -0.0050   -0.0009   -0.0004    0.0024    0.0015
    28 C2     *d2+       0.0222   -0.0057   -0.0025   -0.0003    0.0017    0.0006
    29 H3     1s         0.0696    0.3221   -0.0186   -0.0033   -0.0276    0.0144
    30 H3     *s        -0.0151   -0.0653    0.0276    0.0079    0.0263    0.0225
    31 H3     *px        0.0073    0.0024    0.0000    0.0002   -0.0005    0.0006
    32 H3     *py        0.0039   -0.0047   -0.0029    0.0006    0.0008   -0.0001
    33 H3     *pz       -0.0022   -0.0082    0.0021   -0.0005    0.0016   -0.0010
    34 H4     1s         0.3083   -0.1242    0.0067    0.0055   -0.0145   -0.0047
    35 H4     *s        -0.0552    0.0213   -0.0219   -0.0007    0.0298   -0.0067
    36 H4     *px       -0.0096    0.0029   -0.0007   -0.0002    0.0001    0.0008
    37 H4     *py        0.0038    0.0063    0.0011   -0.0002   -0.0002    0.0010
    38 H4     *pz        0.0004    0.0037   -0.0011    0.0003   -0.0004    0.0003
    39 O1     1s         0.0000    0.0009   -0.0000    0.0031   -0.0009    0.0024
    40 O1     2s        -0.0002   -0.0080    0.0129    0.0324    0.0005    0.2148
    41 O1     *s        -0.0001   -0.0086    0.0097    0.0288    0.0115    0.1383
    42 O1     2px       -0.0586    0.0307   -0.5315    0.2941    0.5012   -0.3084
    43 O1     *px        0.0109   -0.0072   -0.0336    0.0101    0.0311   -0.0525
    44 O1     2py       -0.0483   -0.0339   -0.4612   -0.3732    0.3876    0.4001
    45 O1     *py        0.0098    0.0077   -0.0286   -0.0174    0.0246    0.0637
    46 O1     2pz       -0.0026   -0.0443    0.0333   -0.4333   -0.0042    0.5849
    47 O1     *pz       -0.0006    0.0054   -0.0005    0.0155   -0.0008    0.0890
    48 O1     *d2-      -0.0009    0.0030   -0.0013    0.0082    0.0018   -0.0030
    49 O1     *d1-       0.0032    0.0010    0.0062   -0.0087    0.0003   -0.0074
    50 O1     *d0        0.0002    0.0069   -0.0017    0.0006   -0.0017   -0.0142
    51 O1     *d1+       0.0039   -0.0008    0.0061    0.0063   -0.0010    0.0058
    52 O1     *d2+       0.0054    0.0003    0.0052    0.0023   -0.0098   -0.0006
    53 O2     1s         0.0001   -0.0009   -0.0006    0.0013   -0.0006   -0.0027
    54 O2     2s        -0.0047    0.0096   -0.0138    0.0176   -0.0019   -0.2102
    55 O2     *s        -0.0043    0.0124   -0.0038    0.0372    0.0083   -0.1417
    56 O2     2px        0.0118   -0.0006    0.4102   -0.2608    0.3389   -0.2654
    57 O2     *px        0.0013    0.0017    0.0244   -0.0054    0.0157   -0.0375
    58 O2     2py       -0.0055   -0.0004    0.5568    0.3014    0.5316    0.3297
    59 O2     *py        0.0026   -0.0028    0.0333   -0.0024    0.0240    0.0507
    60 O2     2pz        0.0070   -0.0078   -0.1185    0.5182   -0.1321    0.6348
    61 O2     *pz       -0.0019   -0.0109   -0.0085   -0.0076   -0.0081    0.0991
    62 O2     *d2-      -0.0002   -0.0000    0.0045    0.0077    0.0039    0.0037
    63 O2     *d1-       0.0002   -0.0005    0.0061   -0.0086    0.0012    0.0075
    64 O2     *d0       -0.0001   -0.0010   -0.0014    0.0002   -0.0009    0.0138
    65 O2     *d1+       0.0007    0.0003    0.0034    0.0108   -0.0035   -0.0031
    66 O2     *d2+       0.0000    0.0000    0.0067   -0.0005    0.0112   -0.0031
    67 H7     1s         0.0142    0.0011    0.0244    0.0288   -0.0234   -0.0234
    68 H7     *s        -0.0039    0.0008   -0.0088    0.0212    0.0129    0.0778
    69 H7     *px       -0.0006   -0.0000    0.0107   -0.0085    0.0132   -0.0088
    70 H7     *py        0.0004   -0.0003    0.0188    0.0086    0.0160    0.0107
    71 H7     *pz       -0.0008   -0.0007   -0.0039    0.0103   -0.0042    0.0198
    72 C8     1s         0.0001    0.0005    0.0000   -0.0000   -0.0000    0.0004
    73 C8     2s         0.0057    0.0996    0.0011   -0.0685    0.0028    0.0833
    74 C8     *s         0.0006    0.0232   -0.0008    0.0080    0.0000    0.0248
    75 C8     2px        0.1989   -0.2717    0.0145    0.0180   -0.0136   -0.0189
    76 C8     *px       -0.0184    0.0318    0.0125   -0.0075   -0.0029   -0.0034
    77 C8     2py        0.1909    0.3175    0.0146   -0.0273   -0.0063    0.0292
    78 C8     *py       -0.0190   -0.0376    0.0081    0.0082   -0.0037    0.0033
    79 C8     2pz        0.0024    0.2334    0.0024   -0.0871    0.0067    0.0937
    80 C8     *pz       -0.0009   -0.0359    0.0015    0.0193    0.0016   -0.0285
    81 C8     *d2-      -0.0058   -0.0094    0.0004   -0.0015   -0.0004    0.0012
    82 C8     *d1-      -0.0032    0.0104    0.0005   -0.0032   -0.0005    0.0045
    83 C8     *d0        0.0013    0.0147   -0.0005    0.0006   -0.0004   -0.0046
    84 C8     *d1+      -0.0061   -0.0064    0.0010    0.0024   -0.0007   -0.0040
    85 C8     *d2+       0.0223   -0.0042   -0.0020   -0.0000    0.0009    0.0001
    86 H9     1s        -0.2780   -0.1936   -0.0070   -0.0171    0.0013    0.0315
    87 H9     *s         0.0518    0.0351    0.0241    0.0182   -0.0134   -0.0243
    88 H9     *px        0.0019   -0.0075   -0.0002    0.0002    0.0001   -0.0001
    89 H9     *py       -0.0092   -0.0040    0.0002   -0.0012   -0.0004    0.0011
    90 H9     *pz       -0.0002    0.0047    0.0021   -0.0001   -0.0018   -0.0004
    91 H10    1s         0.2526   -0.2339    0.0065   -0.0175   -0.0015    0.0321
    92 H10    *s        -0.0470    0.0424   -0.0226    0.0201    0.0141   -0.0255
    93 H10    *px       -0.0077    0.0070   -0.0000    0.0012   -0.0004   -0.0010
    94 H10    *py        0.0047    0.0061   -0.0002   -0.0005    0.0005    0.0003
    95 H10    *pz        0.0009    0.0041   -0.0020   -0.0002    0.0020   -0.0004
    96 H11    1s         0.0052    0.0489   -0.0025    0.0523   -0.0040   -0.0750
    97 H11    *s        -0.0019   -0.0246    0.0003    0.0042    0.0006   -0.0297
    98 H11    *px        0.0042   -0.0045    0.0002    0.0014   -0.0003   -0.0019
    99 H11    *py        0.0038    0.0052    0.0003   -0.0017   -0.0001    0.0025
   100 H11    *pz        0.0002    0.0063   -0.0000   -0.0003    0.0000    0.0012
   101 C12    1s         0.0000   -0.0004    0.0012   -0.0000   -0.0001    0.0008
   102 C12    2s         0.0798   -0.0516   -0.0451    0.0207    0.0587   -0.0156
   103 C12    *s         0.0243   -0.0098   -0.0370   -0.0094    0.0066   -0.0196
   104 C12    2px        0.3488   -0.2537   -0.0863    0.0338    0.0829   -0.0344
   105 C12    *px       -0.0417    0.0269   -0.0091    0.0075   -0.0176   -0.0035
   106 C12    2py        0.2292    0.1423    0.0120    0.0030   -0.0132   -0.0027
   107 C12    *py       -0.0227   -0.0116    0.0100   -0.0070    0.0039   -0.0098
   108 C12    2pz       -0.0598    0.1924   -0.0050    0.0042    0.0260    0.0008
   109 C12    *pz        0.0072   -0.0133    0.0089   -0.0107   -0.0149   -0.0049
   110 C12    *d2-      -0.0086   -0.0148    0.0013    0.0006   -0.0001    0.0002
   111 C12    *d1-      -0.0003    0.0097   -0.0008    0.0004    0.0023   -0.0007
   112 C12    *d0       -0.0002    0.0105    0.0019   -0.0022   -0.0028   -0.0001
   113 C12    *d1+      -0.0007   -0.0115   -0.0013   -0.0003   -0.0011   -0.0036
   114 C12    *d2+       0.0211   -0.0043   -0.0025    0.0010    0.0016   -0.0007
   115 H13    1s        -0.3266   -0.0984   -0.0027    0.0045    0.0162   -0.0044
   116 H13    *s         0.0607    0.0180    0.0206    0.0001   -0.0291   -0.0055
   117 H13    *px        0.0008   -0.0068    0.0008    0.0002   -0.0005   -0.0010
   118 H13    *py       -0.0106   -0.0004   -0.0008    0.0003    0.0002   -0.0005
   119 H13    *pz        0.0006    0.0044    0.0007    0.0000   -0.0002    0.0003
   120 H14    1s         0.0431   -0.0436    0.0323   -0.0076   -0.0511   -0.0001
   121 H14    *s        -0.0161    0.0136    0.0005    0.0011   -0.0059   -0.0022
   122 H14    *px        0.0073   -0.0057   -0.0021    0.0016    0.0018   -0.0013
   123 H14    *py        0.0038    0.0038   -0.0008    0.0003    0.0006   -0.0003
   124 H14    *pz        0.0007    0.0021    0.0015    0.0006   -0.0015    0.0008
   125 H15    1s        -0.0283    0.3423    0.0084   -0.0054    0.0143    0.0153
   126 H15    *s         0.0049   -0.0727   -0.0146    0.0109   -0.0086    0.0213
   127 H15    *px        0.0059    0.0032   -0.0017   -0.0007    0.0019   -0.0002
   128 H15    *py        0.0059   -0.0043    0.0010   -0.0000   -0.0003   -0.0005
   129 H15    *pz        0.0006   -0.0090   -0.0008   -0.0003   -0.0002   -0.0010
   130 H16    1s        -0.0478   -0.0382   -0.0309   -0.0081    0.0576   -0.0001
   131 H16    *s         0.0179    0.0118   -0.0011   -0.0007    0.0064   -0.0020
   132 H16    *px        0.0049   -0.0027   -0.0011   -0.0006    0.0013    0.0005
   133 H16    *py        0.0070    0.0056   -0.0018   -0.0014    0.0019    0.0012
   134 H16    *pz       -0.0009    0.0019   -0.0017    0.0007    0.0013    0.0007
--
 
      Von Neumann Entropy (Root   1) =  0.37829
 

      Mulliken population analysis for root number:  1
      -----------------------------------------------
 
 
++    Molecular charges:
      ------------------
 
      Mulliken charges per centre and basis function type
      ---------------------------------------------------
 
                C1      C2      H3      H4      O1      O2      H7      C8      H9      H10     H11     C12   
      1s       2.0043  2.0039  1.2575  1.2665  2.0018  2.0010  1.0763  2.0040  1.2653  1.2661  1.2694  2.0039
      2s       1.3868  1.4510  0.0000  0.0000  1.8473  1.8755  0.0000  1.4502  0.0000  0.0000  0.0000  1.4508
      2px      1.0673  1.1626  0.0000  0.0000  1.6558  1.5864  0.0000  1.1563  0.0000  0.0000  0.0000  1.0949
      2pz      0.8895  1.1744  0.0000  0.0000  1.1332  1.1432  0.0000  1.1192  0.0000  0.0000  0.0000  1.1751
      2py      1.0544  1.1053  0.0000  0.0000  1.5524  1.6744  0.0000  1.1466  0.0000  0.0000  0.0000  1.1722
      *s      -0.1899 -0.4519 -0.3321 -0.3269  0.0402 -0.0675 -0.3276 -0.4514 -0.3296 -0.3286 -0.3219 -0.4533
      *px     -0.0735 -0.1778  0.0073  0.0209  0.0520 -0.0360  0.0351 -0.1769  0.0061  0.0210  0.0067 -0.1809
      *pz     -0.0913 -0.1833  0.0153  0.0055 -0.0375 -0.0596  0.0216 -0.1866  0.0048  0.0048  0.0170 -0.1864
      *py     -0.0801 -0.1791  0.0087  0.0042  0.0475  0.0312  0.0232 -0.1770  0.0198  0.0050  0.0068 -0.1757
      *d2+     0.0404  0.0180  0.0000  0.0000  0.0011  0.0015  0.0000  0.0175  0.0000  0.0000  0.0000  0.0173
      *d1+     0.0327  0.0053  0.0000  0.0000  0.0037  0.0047  0.0000  0.0084  0.0000  0.0000  0.0000  0.0098
      *d0      0.0315  0.0122  0.0000  0.0000  0.0027  0.0006  0.0000  0.0135  0.0000  0.0000  0.0000  0.0120
      *d1-     0.0380  0.0128  0.0000  0.0000  0.0047  0.0025  0.0000  0.0117  0.0000  0.0000  0.0000  0.0084
      *d2-     0.0255  0.0088  0.0000  0.0000  0.0017  0.0021  0.0000  0.0056  0.0000  0.0000  0.0000  0.0094
      Total    6.1356  5.9622  0.9567  0.9702  8.3065  8.1601  0.8287  5.9413  0.9663  0.9681  0.9781  5.9575
 
      N-E     -0.1356  0.0378  0.0433  0.0298 -0.3065 -0.1601  0.1713  0.0587  0.0337  0.0319  0.0219  0.0425
 
                H13     H14     H15     H16   
      1s       1.2660  1.2689  1.2564  1.2677
      2s       0.0000  0.0000  0.0000  0.0000
      2px      0.0000  0.0000  0.0000  0.0000
      2pz      0.0000  0.0000  0.0000  0.0000
      2py      0.0000  0.0000  0.0000  0.0000
      *s      -0.3290 -0.3245 -0.3348 -0.3257
      *px      0.0053  0.0070  0.0066  0.0067
      *pz      0.0056  0.0163  0.0155  0.0166
      *py      0.0198  0.0075  0.0092  0.0076
      *d2+     0.0000  0.0000  0.0000  0.0000
      *d1+     0.0000  0.0000  0.0000  0.0000
      *d0      0.0000  0.0000  0.0000  0.0000
      *d1-     0.0000  0.0000  0.0000  0.0000
      *d2-     0.0000  0.0000  0.0000  0.0000
      Total    0.9677  0.9752  0.9529  0.9729
 
      N-E      0.0323  0.0248  0.0471  0.0271
 
      Total electronic charge=   50.000000
 
      Total            charge=   -0.000000
--
 
 

      Expectation values of various properties for root number:  1
[...]
   112 C12    *d0       -0.0001    0.0113    0.0020   -0.0025   -0.0034    0.0007
   113 C12    *d1+      -0.0006   -0.0083   -0.0010   -0.0009   -0.0015   -0.0039
   114 C12    *d2+       0.0213   -0.0045   -0.0027    0.0009    0.0015   -0.0011
   115 H13    1s        -0.3300   -0.1100   -0.0039    0.0044    0.0158   -0.0023
   116 H13    *s         0.0605    0.0186    0.0208    0.0001   -0.0307   -0.0049
   117 H13    *px        0.0009   -0.0072    0.0008    0.0003   -0.0004   -0.0010
   118 H13    *py       -0.0107   -0.0006   -0.0008    0.0003    0.0001   -0.0004
   119 H13    *pz        0.0007    0.0039    0.0009    0.0001    0.0000    0.0003
   120 H14    1s         0.0490   -0.0002    0.0340   -0.0114   -0.0546    0.0004
   121 H14    *s        -0.0181    0.0066    0.0016   -0.0002   -0.0058   -0.0008
   122 H14    *px        0.0075   -0.0049   -0.0020    0.0017    0.0019   -0.0015
   123 H14    *py        0.0038    0.0034   -0.0007    0.0004    0.0007   -0.0003
   124 H14    *pz        0.0006    0.0030    0.0017    0.0006   -0.0014    0.0008
   125 H15    1s        -0.0344    0.3238    0.0103   -0.0015    0.0220    0.0130
   126 H15    *s         0.0072   -0.0692   -0.0192    0.0094   -0.0171    0.0187
   127 H15    *px        0.0058    0.0024   -0.0022   -0.0009    0.0013   -0.0001
   128 H15    *py        0.0061   -0.0040    0.0008   -0.0002   -0.0004   -0.0004
   129 H15    *pz        0.0004   -0.0088   -0.0013   -0.0006   -0.0011   -0.0008
   130 H16    1s        -0.0521    0.0055   -0.0371   -0.0096    0.0566   -0.0014
   131 H16    *s         0.0191    0.0053   -0.0026   -0.0005    0.0060   -0.0003
   132 H16    *px        0.0050   -0.0023   -0.0013   -0.0006    0.0013    0.0006
   133 H16    *py        0.0069    0.0052   -0.0020   -0.0014    0.0019    0.0013
   134 H16    *pz       -0.0013    0.0030   -0.0015    0.0008    0.0013    0.0005
--
 
      Von Neumann Entropy (Root   1) =  0.38320
 

      Mulliken population analysis for root number:  1
      -----------------------------------------------
 
 
++    Molecular charges:
      ------------------
 
      Mulliken charges per centre and basis function type
      ---------------------------------------------------
 
                C1      C2      H3      H4      O1      O2      H7      C8      H9      H10     H11     C12   
      1s       2.0043  2.0039  1.2573  1.2662  2.0018  2.0010  1.0710  2.0039  1.2656  1.2656  1.2653  2.0039
      2s       1.3871  1.4505  0.0000  0.0000  1.8445  1.8773  0.0000  1.4507  0.0000  0.0000  0.0000  1.4501
      2px      1.0647  1.1627  0.0000  0.0000  1.6523  1.6874  0.0000  1.1582  0.0000  0.0000  0.0000  1.0953
      2pz      0.8869  1.1737  0.0000  0.0000  1.1406  1.1008  0.0000  1.1201  0.0000  0.0000  0.0000  1.1738
      2py      1.0612  1.1036  0.0000  0.0000  1.5625  1.6121  0.0000  1.1466  0.0000  0.0000  0.0000  1.1704
      *s      -0.1922 -0.4471 -0.3337 -0.3273  0.0355 -0.0678 -0.3255 -0.4512 -0.3291 -0.3293 -0.3244 -0.4469
      *px     -0.0787 -0.1763  0.0073  0.0209  0.0530  0.0102  0.0285 -0.1758  0.0061  0.0210  0.0069 -0.1778
      *pz     -0.1003 -0.1858  0.0154  0.0055 -0.0392 -0.0659  0.0216 -0.1892  0.0048  0.0048  0.0170 -0.1855
      *py     -0.0784 -0.1768  0.0086  0.0042  0.0466 -0.0058  0.0290 -0.1764  0.0198  0.0050  0.0067 -0.1746
      *d2+     0.0395  0.0180  0.0000  0.0000  0.0009  0.0008  0.0000  0.0177  0.0000  0.0000  0.0000  0.0172
      *d1+     0.0329  0.0055  0.0000  0.0000  0.0039  0.0033  0.0000  0.0085  0.0000  0.0000  0.0000  0.0098
      *d0      0.0351  0.0123  0.0000  0.0000  0.0030  0.0005  0.0000  0.0137  0.0000  0.0000  0.0000  0.0121
      *d1-     0.0366  0.0124  0.0000  0.0000  0.0044  0.0040  0.0000  0.0115  0.0000  0.0000  0.0000  0.0084
      *d2-     0.0239  0.0087  0.0000  0.0000  0.0013  0.0025  0.0000  0.0053  0.0000  0.0000  0.0000  0.0093
      Total    6.1226  5.9651  0.9548  0.9696  8.3111  8.1603  0.8245  5.9437  0.9672  0.9670  0.9715  5.9655
 
      N-E     -0.1226  0.0349  0.0452  0.0304 -0.3111 -0.1603  0.1755  0.0563  0.0328  0.0330  0.0285  0.0345
 
                H13     H14     H15     H16   
      1s       1.2663  1.2698  1.2568  1.2699
      2s       0.0000  0.0000  0.0000  0.0000
      2px      0.0000  0.0000  0.0000  0.0000
      2pz      0.0000  0.0000  0.0000  0.0000
      2py      0.0000  0.0000  0.0000  0.0000
      *s      -0.3272 -0.3238 -0.3341 -0.3239
      *px      0.0053  0.0072  0.0064  0.0069
      *pz      0.0057  0.0165  0.0152  0.0166
      *py      0.0196  0.0071  0.0096  0.0074
      *d2+     0.0000  0.0000  0.0000  0.0000
      *d1+     0.0000  0.0000  0.0000  0.0000
      *d0      0.0000  0.0000  0.0000  0.0000
      *d1-     0.0000  0.0000  0.0000  0.0000
      *d2-     0.0000  0.0000  0.0000  0.0000
      Total    0.9697  0.9768  0.9539  0.9768
 
      N-E      0.0303  0.0232  0.0461  0.0232
 
      Total electronic charge=   50.000000
 
      Total            charge=   -0.000000
--
 
 

      Expectation values of various properties for root number:  1
      -----------------------------------------------------------
 
 
++    Molecular properties:
      ---------------------
 
      Charge (e):
                      =   -0.0000
      Dipole Moment (Debye):
      Origin of the operator (Ang)=    0.0000    0.0000    0.0000
                   X=  1.9313E-01               Y= -2.3785E-01               Z= -4.0298E-01           Total=  5.0623E-01
      Quadrupole Moment (Debye*Ang):
      Origin of the operator (Ang)=    0.0227    0.0884    0.0107
                  XX= -3.8810E+01              XY= -3.0535E-01              XZ=  1.6739E+00              YY= -3.8902E+01
                  YZ= -1.5952E+00              ZZ= -3.3858E+01
      In traceless form (Debye*Ang)
                  XX= -2.4300E+00              XY= -4.5802E-01              XZ=  2.5109E+00              YY= -2.5677E+00
                  YZ= -2.3927E+00              ZZ=  4.9977E+00
--
 
      Von Neumann Entropy (Root   2) =  1.10311
 

      Mulliken population analysis for root number:  2
      -----------------------------------------------
 
 
++    Molecular charges:
      ------------------
 
      Mulliken charges per centre and basis function type
      ---------------------------------------------------
 
                C1      C2      H3      H4      O1      O2      H7      C8      H9      H10     H11     C12   
      1s       2.0043  2.0039  1.2574  1.2663  2.0018  2.0010  1.0703  2.0039  1.2654  1.2654  1.2691  2.0039
      2s       1.3881  1.4496  0.0000  0.0000  1.8605  1.8876  0.0000  1.4524  0.0000  0.0000  0.0000  1.4494
      2px      1.0664  1.1627  0.0000  0.0000  1.4457  1.4988  0.0000  1.1588  0.0000  0.0000  0.0000  1.0904
      2pz      0.8932  1.1738  0.0000  0.0000  1.3852  1.3839  0.0000  1.1235  0.0000  0.0000  0.0000  1.1739
      2py      1.0625  1.0978  0.0000  0.0000  1.4771  1.5009  0.0000  1.1481  0.0000  0.0000  0.0000  1.1704
      *s      -0.1927 -0.4470 -0.3337 -0.3281  0.0353 -0.0716 -0.3179 -0.4517 -0.3286 -0.3286 -0.3234 -0.4468
      *px     -0.0804 -0.1761  0.0073  0.0209  0.0469  0.0031  0.0263 -0.1756  0.0061  0.0210  0.0069 -0.1779
      *pz     -0.1001 -0.1861  0.0153  0.0055 -0.0218 -0.0426  0.0253 -0.1882  0.0048  0.0048  0.0171 -0.1857
      *py     -0.0799 -0.1770  0.0085  0.0043  0.0478 -0.0087  0.0278 -0.1762  0.0198  0.0050  0.0067 -0.1744
      *d2+     0.0358  0.0180  0.0000  0.0000  0.0010  0.0008  0.0000  0.0176  0.0000  0.0000  0.0000  0.0172
      *d1+     0.0318  0.0055  0.0000  0.0000  0.0039  0.0033  0.0000  0.0086  0.0000  0.0000  0.0000  0.0099
      *d0      0.0395  0.0123  0.0000  0.0000  0.0043  0.0018  0.0000  0.0141  0.0000  0.0000  0.0000  0.0121
      *d1-     0.0364  0.0125  0.0000  0.0000  0.0047  0.0043  0.0000  0.0116  0.0000  0.0000  0.0000  0.0084
      *d2-     0.0247  0.0086  0.0000  0.0000  0.0013  0.0025  0.0000  0.0053  0.0000  0.0000  0.0000  0.0093
      Total    6.1294  5.9585  0.9549  0.9689  8.2937  8.1651  0.8318  5.9523  0.9675  0.9675  0.9764  5.9600
 
      N-E     -0.1294  0.0415  0.0451  0.0311 -0.2937 -0.1651  0.1682  0.0477  0.0325  0.0325  0.0236  0.0400
 
                H13     H14     H15     H16   
      1s       1.2663  1.2687  1.2569  1.2686
      2s       0.0000  0.0000  0.0000  0.0000
      2px      0.0000  0.0000  0.0000  0.0000
      2pz      0.0000  0.0000  0.0000  0.0000
      2py      0.0000  0.0000  0.0000  0.0000
      *s      -0.3280 -0.3239 -0.3341 -0.3240
      *px      0.0053  0.0071  0.0064  0.0069
      *pz      0.0057  0.0165  0.0152  0.0165
      *py      0.0196  0.0071  0.0096  0.0073
      *d2+     0.0000  0.0000  0.0000  0.0000
      *d1+     0.0000  0.0000  0.0000  0.0000
      *d0      0.0000  0.0000  0.0000  0.0000
      *d1-     0.0000  0.0000  0.0000  0.0000
      *d2-     0.0000  0.0000  0.0000  0.0000
      Total    0.9690  0.9756  0.9541  0.9754
 
      N-E      0.0310  0.0244  0.0459  0.0246
 
      Total electronic charge=   50.000000
 
      Total            charge=   -0.000000
--
 
 

      Expectation values of various properties for root number:  2
      -----------------------------------------------------------
 
 
++    Molecular properties:
      ---------------------
 
      Charge (e):
                      =   -0.0000
      Dipole Moment (Debye):
      Origin of the operator (Ang)=    0.0000    0.0000    0.0000
                   X=  2.1009E-01               Y= -2.4509E-01               Z= -4.7265E-01           Total=  5.7237E-01
      Quadrupole Moment (Debye*Ang):
      Origin of the operator (Ang)=    0.0227    0.0884    0.0107
                  XX= -3.8164E+01              XY=  3.0047E-01              XZ=  2.0585E+00              YY= -3.8456E+01
                  YZ= -2.2034E+00              ZZ= -3.5262E+01
      In traceless form (Debye*Ang)
                  XX= -1.3048E+00              XY=  4.5070E-01              XZ=  3.0878E+00              YY= -1.7432E+00
                  YZ= -3.3051E+00              ZZ=  3.0480E+00
--
 
      Von Neumann Entropy (Root   3) =  1.18445
 

      Mulliken population analysis for root number:  3
      -----------------------------------------------
 
 
++    Molecular charges:
      ------------------
 
      Mulliken charges per centre and basis function type
      ---------------------------------------------------
 
                C1      C2      H3      H4      O1      O2      H7      C8      H9      H10     H11     C12   
      1s       2.0043  2.0039  1.2577  1.2664  2.0018  2.0010  1.0704  2.0039  1.2654  1.2654  1.2689  2.0039
      2s       1.3882  1.4497  0.0000  0.0000  1.8617  1.8899  0.0000  1.4522  0.0000  0.0000  0.0000  1.4495
      2px      1.0666  1.1627  0.0000  0.0000  1.4964  1.4278  0.0000  1.1588  0.0000  0.0000  0.0000  1.0928
      2pz      0.8938  1.1739  0.0000  0.0000  1.3375  1.4607  0.0000  1.1230  0.0000  0.0000  0.0000  1.1740
      2py      1.0629  1.1006  0.0000  0.0000  1.4946  1.4542  0.0000  1.1479  0.0000  0.0000  0.0000  1.1704
      *s      -0.1928 -0.4470 -0.3344 -0.3283  0.0343 -0.0708 -0.3165 -0.4517 -0.3286 -0.3286 -0.3234 -0.4468
      *px     -0.0780 -0.1763  0.0073  0.0209  0.0473  0.0014  0.0255 -0.1756  0.0061  0.0210  0.0069 -0.1779
      *pz     -0.0997 -0.1866  0.0153  0.0055 -0.0226 -0.0318  0.0263 -0.1884  0.0048  0.0048  0.0171 -0.1862
      *py     -0.0782 -0.1771  0.0086  0.0043  0.0470 -0.0088  0.0272 -0.1762  0.0198  0.0050  0.0067 -0.1746
      *d2+     0.0371  0.0180  0.0000  0.0000  0.0008  0.0005  0.0000  0.0177  0.0000  0.0000  0.0000  0.0172
      *d1+     0.0323  0.0054  0.0000  0.0000  0.0041  0.0033  0.0000  0.0086  0.0000  0.0000  0.0000  0.0099
      *d0      0.0389  0.0122  0.0000  0.0000  0.0045  0.0019  0.0000  0.0142  0.0000  0.0000  0.0000  0.0120
      *d1-     0.0367  0.0124  0.0000  0.0000  0.0049  0.0043  0.0000  0.0116  0.0000  0.0000  0.0000  0.0084
      *d2-     0.0246  0.0087  0.0000  0.0000  0.0012  0.0024  0.0000  0.0053  0.0000  0.0000  0.0000  0.0093
      Total    6.1366  5.9606  0.9545  0.9688  8.3135  8.1360  0.8330  5.9512  0.9676  0.9675  0.9762  5.9619
 
      N-E     -0.1366  0.0394  0.0455  0.0312 -0.3135 -0.1360  0.1670  0.0488  0.0324  0.0325  0.0238  0.0381
 
                H13     H14     H15     H16   
      1s       1.2665  1.2683  1.2572  1.2683
      2s       0.0000  0.0000  0.0000  0.0000
      2px      0.0000  0.0000  0.0000  0.0000
      2pz      0.0000  0.0000  0.0000  0.0000
      2py      0.0000  0.0000  0.0000  0.0000
      *s      -0.3284 -0.3239 -0.3346 -0.3240
      *px      0.0053  0.0071  0.0064  0.0069
      *pz      0.0057  0.0165  0.0152  0.0166
      *py      0.0196  0.0071  0.0096  0.0074
      *d2+     0.0000  0.0000  0.0000  0.0000
      *d1+     0.0000  0.0000  0.0000  0.0000
      *d0      0.0000  0.0000  0.0000  0.0000
      *d1-     0.0000  0.0000  0.0000  0.0000
      *d2-     0.0000  0.0000  0.0000  0.0000
      Total    0.9688  0.9752  0.9538  0.9750
 
      N-E      0.0312  0.0248  0.0462  0.0250
 
      Total electronic charge=   50.000000
 
      Total            charge=   -0.000000
--
 
 

      Expectation values of various properties for root number:  3
      -----------------------------------------------------------
 
 
++    Molecular properties:
      ---------------------
 
      Charge (e):
                      =   -0.0000
      Dipole Moment (Debye):
      Origin of the operator (Ang)=    0.0000    0.0000    0.0000
                   X=  1.3594E-01               Y= -1.4953E-01               Z= -2.2835E-01           Total=  3.0493E-01
      Quadrupole Moment (Debye*Ang):
      Origin of the operator (Ang)=    0.0227    0.0884    0.0107
                  XX= -3.8160E+01              XY=  4.3735E-01              XZ=  2.1175E+00              YY= -3.8498E+01
                  YZ= -2.2533E+00              ZZ= -3.4922E+01
      In traceless form (Debye*Ang)
                  XX= -1.4502E+00              XY=  6.5602E-01              XZ=  3.1763E+00              YY= -1.9572E+00
                  YZ= -3.3799E+00              ZZ=  3.4074E+00
--
 
      Von Neumann Entropy (Root   4) =  0.85061
 

      Mulliken population analysis for root number:  4
      -----------------------------------------------
 
 
++    Molecular charges:
      ------------------
 
      Mulliken charges per centre and basis function type
      ---------------------------------------------------
 
                C1      C2      H3      H4      O1      O2      H7      C8      H9      H10     H11     C12   
      1s       2.0043  2.0039  1.2577  1.2665  2.0018  2.0010  1.0700  2.0039  1.2652  1.2652  1.2722  2.0039
      2s       1.3889  1.4489  0.0000  0.0000  1.8738  1.8976  0.0000  1.4537  0.0000  0.0000  0.0000  1.4488
      2px      1.0678  1.1628  0.0000  0.0000  1.2965  1.2449  0.0000  1.1593  0.0000  0.0000  0.0000  1.0871
      2pz      0.8986  1.1739  0.0000  0.0000  1.5781  1.7453  0.0000  1.1262  0.0000  0.0000  0.0000  1.1740
      2py      1.0637  1.0939  0.0000  0.0000  1.4219  1.3517  0.0000  1.1493  0.0000  0.0000  0.0000  1.1704
      *s      -0.1932 -0.4469 -0.3342 -0.3289  0.0338 -0.0743 -0.3106 -0.4520 -0.3282 -0.3280 -0.3226 -0.4467
      *px     -0.0808 -0.1760  0.0073  0.0209  0.0415 -0.0065  0.0234 -0.1755  0.0061  0.0210  0.0069 -0.1780
      *pz     -0.1003 -0.1865  0.0153  0.0055 -0.0107 -0.0163  0.0296 -0.1874  0.0048  0.0047  0.0171 -0.1860
      *py     -0.0805 -0.1773  0.0085  0.0043  0.0480 -0.0130  0.0261 -0.1761  0.0199  0.0050  0.0068 -0.1744
      *d2+     0.0332  0.0180  0.0000  0.0000  0.0009  0.0007  0.0000  0.0176  0.0000  0.0000  0.0000  0.0172
      *d1+     0.0311  0.0054  0.0000  0.0000  0.0041  0.0034  0.0000  0.0087  0.0000  0.0000  0.0000  0.0099
      *d0      0.0429  0.0122  0.0000  0.0000  0.0054  0.0029  0.0000  0.0144  0.0000  0.0000  0.0000  0.0121
      *d1-     0.0363  0.0125  0.0000  0.0000  0.0052  0.0045  0.0000  0.0116  0.0000  0.0000  0.0000  0.0084
      *d2-     0.0254  0.0086  0.0000  0.0000  0.0012  0.0024  0.0000  0.0053  0.0000  0.0000  0.0000  0.0093
      Total    6.1373  5.9536  0.9546  0.9682  8.3015  8.1442  0.8384  5.9593  0.9677  0.9679  0.9804  5.9560
 
      N-E     -0.1373  0.0464  0.0454  0.0318 -0.3015 -0.1442  0.1616  0.0407  0.0323  0.0321  0.0196  0.0440
 
                H13     H14     H15     H16   
      1s       1.2665  1.2676  1.2572  1.2674
      2s       0.0000  0.0000  0.0000  0.0000
      2px      0.0000  0.0000  0.0000  0.0000
      2pz      0.0000  0.0000  0.0000  0.0000
      2py      0.0000  0.0000  0.0000  0.0000
      *s      -0.3288 -0.3239 -0.3344 -0.3241
      *px      0.0053  0.0071  0.0063  0.0069
      *pz      0.0057  0.0165  0.0152  0.0165
      *py      0.0196  0.0071  0.0096  0.0073
      *d2+     0.0000  0.0000  0.0000  0.0000
      *d1+     0.0000  0.0000  0.0000  0.0000
      *d0      0.0000  0.0000  0.0000  0.0000
      *d1-     0.0000  0.0000  0.0000  0.0000
      *d2-     0.0000  0.0000  0.0000  0.0000
      Total    0.9683  0.9744  0.9540  0.9740
 
      N-E      0.0317  0.0256  0.0460  0.0260
 
      Total electronic charge=   50.000000
 
      Total            charge=   -0.000000
--
 
 

      Expectation values of various properties for root number:  4
      -----------------------------------------------------------
 
 
++    Molecular properties:
      ---------------------
 
      Charge (e):
                      =   -0.0000
      Dipole Moment (Debye):
      Origin of the operator (Ang)=    0.0000    0.0000    0.0000
                   X=  1.4827E-01               Y= -1.5433E-01               Z= -3.2771E-01           Total=  3.9140E-01
      Quadrupole Moment (Debye*Ang):
      Origin of the operator (Ang)=    0.0227    0.0884    0.0107
                  XX= -3.7566E+01              XY=  1.0059E+00              XZ=  2.4097E+00              YY= -3.8086E+01
                  YZ= -2.7411E+00              ZZ= -3.6099E+01
      In traceless form (Debye*Ang)
                  XX= -4.7317E-01              XY=  1.5089E+00              XZ=  3.6146E+00              YY= -1.2530E+00
                  YZ= -4.1116E+00              ZZ=  1.7262E+00
--
 
 
      Input file to MOLDEN was generated!
 
 
      Input file to MOLDEN was generated!
 
 
      Input file to MOLDEN was generated!
 
 
      Input file to MOLDEN was generated!
 
 
      Input file to MOLDEN was generated!
 
      Average orbitals are written to the RASORB file
      Natural orbitals for root   1 are written to the RASORB.1 file
      Natural orbitals for root   2 are written to the RASORB.2 file
      Natural orbitals for root   3 are written to the RASORB.3 file
      Natural orbitals for root   4 are written to the RASORB.4 file
      Spin density orbitals for root   1 are written to the SPDORB.1 file
      Spin density orbitals for root   2 are written to the SPDORB.2 file
      Spin density orbitals for root   3 are written to the SPDORB.3 file
      Spin density orbitals for root   4 are written to the SPDORB.4 file
 
--- Stop Module: last_energy at Wed Jul  8 12:04:20 2026 /rc=_RC_ALL_IS_WELL_ ---
*** files: relaxed_scan_tbhp_casscf.rasscf.molden relaxed_scan_tbhp_casscf.rasscf.molden.1 relaxed_scan_tbhp_casscf.rasscf.molden.2 relaxed_scan_tbhp_casscf.rasscf.molden.3
           relaxed_scan_tbhp_casscf.rasscf.molden.4 relaxed_scan_tbhp_casscf.RasOrb relaxed_scan_tbhp_casscf.RasOrb.1 relaxed_scan_tbhp_casscf.RasOrb.2
           relaxed_scan_tbhp_casscf.RasOrb.3 relaxed_scan_tbhp_casscf.RasOrb.4 relaxed_scan_tbhp_casscf.SpdOrb.1 relaxed_scan_tbhp_casscf.SpdOrb.2 relaxed_scan_tbhp_casscf.SpdOrb.3
           relaxed_scan_tbhp_casscf.SpdOrb.4 xmldump
    saved to directory /vscratch/grp-cyberwksp21/hclifford/openmolcas/PES/runs_relaxed_s1/R_1p60
--- Module last_energy spent 35 seconds ---

>>> END DO

.##################.
.# Happy landing! #.
.##################.

    Timing: Wall=947.98 User=742.44 System=149.08
