   This run of MOLCAS is using the pymolcas driver

                             OPE
                             OPE          NMOL  CASOP  ENMOLC A   SO
                 OPE        NMOLC        AS  OP EN  MO LC     AS  OP
                OPENM       OL CA        SO  PE NM  OL CA     SOP EN
                OP EN      MO   LC       AS  OP ENMOL  CASO   PENMOL
                OP  EN     MO   LC       AS  OP EN     MO     LC ASO
               OP   E  NMOL  C  AS       OP  EN MO     LC     AS  OP
               OP  E   NMO   LC AS        OPEN  MO     LCASOP EN   M
               O  PEN   MO  LCA  SO
            OPE   NMO   L   CAS    OP
        OPENMOL  CASOP     ENMOL   CASOPE
     OPENMOLCA   SOPENMOLCASOPEN   MOLCASOPE
    OPENMOLCAS   OP           EN   MOL    CAS
    OPENMOLCAS       OP  ENM        O     LCA
    OPENMOLCAS    OPEN  MOLCASO     P  E  NMO
    OPENMOLCAS     OP               E  N  MOL
    OPENMOLCA   SO           PENM   O  L  CAS    OPEN    MO    LCAS
    OPENMOLCA   SOP           ENM   O  L  CAS   OP  EN  MOLC  AS   O
    OPENMOLCA   SOPE           NM      O  LCA   S      OP  EN MO
    OPENMOLC                AS         O  PEN   M      OL  CA  SOPE
    OPENMO        LCASOPE  NMOL        C  ASO   P      ENMOLC     AS
    OPE     NMO      LCA  SO     P     E   NM   OL  CA SO  PE N   MO
          OPENMOLCA            SOPE   NMO        LCAS  O    P  ENMO
     OPENMOLCASOPENMOLCASOPENMOLCASOPENMOLCA
        OPENMOLCASOPENMOLCASOPENMOLCASOPE
            OPENMOLCASOPENMOLCASOPENM
               OPENMOLCASOPENMOLCA        version: v23.10 ?
                   OPENMOLCASO
                       OPE                tag:

 OpenMolcas is free software; you can redistribute it and/or modify it
 under the terms of the GNU Lesser General Public License version 2.1.
 OpenMolcas is distributed in the hope that it will be useful, but it
 is provided "as is" and without any express or implied warranties.
 For more details see the full text of the license in the file
 LICENSE or in <http://www.gnu.org/licenses/>.

                 Copyright (C) The OpenMolcas Authors
           For the author list and the recommended citation,
                   consult the file CONTRIBUTORS.md

           *************************************************
           * pymolcas version py2.25                       *
           *   build 2b27fa14244bdc32cb1957e6230cd793      *
           *   (after the EMIL interpreter by V. Veryazov) *
           *************************************************

configuration info
------------------
Host name: cpn-h22-29.core.ccr.buffalo.edu (Linux)
C Compiler ID: Intel
C flags: -O2 -xCore-AVX512 -ftz -fp-speculation=safe -fp-model source -std=gnu99 -gcc-sys -qopenmp
Fortran Compiler ID: Intel
Fortran flags: -O2 -xCore-AVX512 -ftz -fp-speculation=safe -fp-model source  -fpp -i8 -heap-arrays -qopenmp
Definitions: _MOLCAS_;_I8_;_LINUX_;_MOLCAS_MPP_;_SCALAPACK_;_GA_
Parallel: ON (GA=ON)


   -----------------------------------------------------------------------------------------------------------------------------------------------------
  |
  |           Project: relaxed_scan_tbhp_casscf
  |    Submitted from: /vscratch/grp-cyberwksp21/hclifford/openmolcas/PES/runs_relaxed_s1/R_3p00
  |      Scratch area: /vscratch/grp-cyberwksp21/hclifford/openmolcas/PES/runs_relaxed_s1/R_3p00/molcas_scratch_R_3p00/relaxed_scan_tbhp_casscf
  |   Save outputs to: /vscratch/grp-cyberwksp21/hclifford/openmolcas/PES/runs_relaxed_s1/R_3p00
  |            Molcas: /cvmfs/soft.ccr.buffalo.edu/versions/2023.01/easybuild/software/avx512/MPI/intel/2022.0.1/impi/2021.5.0/openmolcas/23.10
  |
  | Scratch area is NOT empty
  |
  |    MOLCAS_DRIVER = /cvmfs/soft.ccr.buffalo.edu/versions/2023.01/easybuild/software/avx512/MPI/intel/2022.0.1/impi/2021.5.0/openmolcas/23.10/pymolcas
  |    MOLCAS_MOLDEN = ON
  |    MOLCAS_NPROCS = 1
  |     MOLCAS_PRINT = NORMAL
  |    MOLCAS_SOURCE = /cvmfs/soft.ccr.buffalo.edu/versions/2023.01/easybuild/software/avx512/MPI/intel/2022.0.1/impi/2021.5.0/openmolcas/23.10
  | MOLCAS_STRUCTURE = 0
  |
   -----------------------------------------------------------------------------------------------------------------------------------------------------

++ ---------   Input file   ---------

&GATEWAY
  Coord = tbhp.xyz
  Basis = cc-pVDZ
  Group = NoSymm
  Constraints
    rOO = Bond O1 O2
  Values
    rOO = 3.00 Angstrom
  End of Constraints

>>> DO WHILE

  &SEWARD

  &RASSCF
    Spin = 1
    NActEl = 6 0 0
    Inactive = 22
    Ras2 = 4
    CiRoot = 4 4 1
    RlxRoot = 2
    LumOrb
    LevShift = 1.0

  &ALASKA

  &SLAPAF

>>> END DO

-- ----------------------------------

*** symbolic link created: INPORB -> relaxed_scan_tbhp_casscf.RasOrb
--- Start Module: gateway at Thu Jul  9 12:08:49 2026 ---
 
()()()()()()()()()()()()()()()()()()()()()()()()()()()()()()()()()()()()()()()()()()()()()()()()()()

                                              &GATEWAY

                       only a single process is used, running in SERIAL mode
                        available to each process: 12 GB of memory, 1 thread
                                            pid: 1128776
()()()()()()()()()()()()()()()()()()()()()()()()()()()()()()()()()()()()()()()()()()()()()()()()()()
 
 
++    Symmetry information:
      ---------------------
 
                    Character Table for C1 
 
                             E  
                    a        1  x, y, xy, Rz, z, xz, Ry, yz, Rx, I
--
 
 
++    Basis set information:
      ----------------------
 
 
      Basis set label: C.CC-PVDZ.........
 
      Electronic valence basis set:
      ------------------
      Associated Effective Charge   6.000000 au
      Associated Actual Charge      6.000000 au
      Nuclear Model: Point charge
 
      Shell  nPrim  nBasis  Cartesian Spherical Contaminant
         s       9       3        X                  
         p       4       2        X                  
         d       1       1                 X         
 
 
      Basis set label: H.CC-PVDZ.........
 
      Electronic valence basis set:
      ------------------
      Associated Effective Charge   1.000000 au
      Associated Actual Charge      1.000000 au
      Nuclear Model: Point charge
 
      Shell  nPrim  nBasis  Cartesian Spherical Contaminant
         s       4       2        X                  
         p       1       1        X                  
 
 
      Basis set label: O.CC-PVDZ.........
 
      Electronic valence basis set:
      ------------------
      Associated Effective Charge   8.000000 au
      Associated Actual Charge      8.000000 au
      Nuclear Model: Point charge
 
      Shell  nPrim  nBasis  Cartesian Spherical Contaminant
         s       9       3        X                  
         p       4       2        X                  
         d       1       1                 X         
 
 
      Basis set label: H.CC-PVDZ.........
 
      Electronic valence basis set:
      ------------------
      Associated Effective Charge   1.000000 au
      Associated Actual Charge      1.000000 au
      Nuclear Model: Point charge
 
      Shell  nPrim  nBasis  Cartesian Spherical Contaminant
         s       4       2        X                  
         p       1       1        X                  
 
 
      Basis set label: C.CC-PVDZ.........
 
      Electronic valence basis set:
      ------------------
      Associated Effective Charge   6.000000 au
      Associated Actual Charge      6.000000 au
      Nuclear Model: Point charge
 
      Shell  nPrim  nBasis  Cartesian Spherical Contaminant
         s       9       3        X                  
         p       4       2        X                  
         d       1       1                 X         
 
 
      Basis set label: H.CC-PVDZ.........
 
      Electronic valence basis set:
      ------------------
      Associated Effective Charge   1.000000 au
      Associated Actual Charge      1.000000 au
      Nuclear Model: Point charge
 
      Shell  nPrim  nBasis  Cartesian Spherical Contaminant
         s       4       2        X                  
         p       1       1        X                  
 
 
      Basis set label: C.CC-PVDZ.........
 
      Electronic valence basis set:
      ------------------
      Associated Effective Charge   6.000000 au
      Associated Actual Charge      6.000000 au
      Nuclear Model: Point charge
 
      Shell  nPrim  nBasis  Cartesian Spherical Contaminant
         s       9       3        X                  
         p       4       2        X                  
         d       1       1                 X         
 
 
      Basis set label: H.CC-PVDZ.........
 
      Electronic valence basis set:
      ------------------
      Associated Effective Charge   1.000000 au
      Associated Actual Charge      1.000000 au
      Nuclear Model: Point charge
 
      Shell  nPrim  nBasis  Cartesian Spherical Contaminant
         s       4       2        X                  
         p       1       1        X                  
--
 
 
++    Molecular structure info:
      -------------------------
 
                    ************************************************ 
                    **** Cartesian Coordinates / Bohr, Angstrom **** 
                    ************************************************ 
 
     Center  Label                x              y              z                     x              y              z
        1      C1               0.077874       0.037001      -0.916751              0.041209       0.019580      -0.485124
        2      C2               0.927649       2.799186      -0.872770              0.490891       1.481265      -0.461850
        3      H3               0.213489       3.762404       0.802411              0.112974       1.990978       0.424618
        4      H4               2.987047       2.925622      -0.866167              1.580677       1.548173      -0.458356
        5      O1               1.047161      -1.107961       1.294339              0.554134      -0.586308       0.684935
        6      O2              -0.596458       1.408821       5.648816             -0.315632       0.745516       2.989225
        7      H7               0.217129       0.317869       4.453636              0.114900       0.168209       2.356763
        8      C8               1.095899      -1.359257      -3.226825              0.579925      -0.719288      -1.707562
        9      H9               0.544586      -3.345350      -3.166270              0.288182      -1.770283      -1.675518
       10      H10              3.156048      -1.267590      -3.272456              1.670109      -0.670780      -1.731709
       11      H11              0.370935      -0.531499      -4.972322              0.196290      -0.281257      -2.631240
       12      C12             -2.798079      -0.191382      -0.709913             -1.480680      -0.101275      -0.375670
       13      H13             -3.366566      -2.171735      -0.610353             -1.781510      -1.149233      -0.322985
       14      H14             -3.685201       0.650022      -2.370057             -1.950124       0.343977      -1.254180
       15      H15             -3.492366       0.771944       0.973610             -1.848081       0.408495       0.515212
       16      H16              0.232545       3.778796      -2.549021              0.123058       1.999653      -1.348884
 
                    ************************************************* 
                    **** InterNuclear Distances / Bohr, Angstrom **** 
                    ************************************************* 
 
     Atom centers         Bohr        Angstrom
    7 H7        6 O2      1.811231        0.958462
    3 H3        2 C2      2.060108        1.090162
   15 H15      12 C12     2.060165        1.090192
   14 H14      12 C12     2.061801        1.091058
    9 H9        8 C8      2.062081        1.091206
   16 H16       2 C2      2.062190        1.091264
   10 H10       8 C8      2.062693        1.091530
   13 H13      12 C12     2.062738        1.091554
    4 H4        2 C2      2.063286        1.091844
   11 H11       8 C8      2.063375        1.091891
    5 O1        1 C1      2.671961        1.413941
    8 C8        1 C1      2.884849        1.526596
    2 C2        1 C1      2.890279        1.529470
   12 C12       1 C1      2.892412        1.530599
   16 H16       4 H4      3.338740        1.766785
   10 H10       9 H9      3.338877        1.766858
   14 H14      13 H13     3.340718        1.767832
    4 H4        3 H3      3.343198        1.769144
   11 H11      10 H10     3.344882        1.770035
   15 H15      13 H13     3.345147        1.770176
   11 H11       9 H9      3.348095        1.771735
   15 H15      14 H14     3.351441        1.773506
   16 H16       3 H3      3.351527        1.773551
    7 H7        5 O1      3.564140        1.886062
   14 H14       1 C1      4.080273        2.159187
   16 H16       1 C1      4.085249        2.161821
    9 H9        1 C1      4.088820        2.163711
   10 H10       1 C1      4.089799        2.164228
    4 H4        1 C1      4.099997        2.169625
   13 H13       1 C1      4.103238        2.171340
    3 H3        1 C1      4.105184        2.172370
   11 H11       1 C1      4.105695        2.172640
   15 H15       1 C1      4.106120        2.172865
   12 C12       5 O1      4.432044        2.345337
    5 O1        2 C2      4.469501        2.365158
    8 C8        5 O1      4.528405        2.396329
   15 H15       3 H3      4.765031        2.521546
   12 C12       2 C2      4.780279        2.529615
   12 C12       8 C8      4.781406        2.530211
    8 C8        2 C2      4.781478        2.530249
   13 H13       9 H9      4.817385        2.549250
   10 H10       4 H4      4.837542        2.559917
   13 H13       5 O1      4.923459        2.605383
   15 H15       5 O1      4.923842        2.605585
   16 H16      11 H11     4.946735        2.617699
   14 H14      11 H11     4.961856        2.625701
    5 O1        3 H3      4.965627        2.627697
    5 O1        4 H4      4.969984        2.630002
    9 H9        5 O1      5.015528        2.654103
   16 H16      14 H14     5.016970        2.654866
    7 H7        3 H3      5.019589        2.656252
   10 H10       5 O1      5.032743        2.663213
   15 H15       7 H7      5.106576        2.702284
   12 C12       3 H3      5.195103        2.749130
   15 H15       2 C2      5.201477        2.752503
   12 C12       9 H9      5.211009        2.757547
   10 H10       2 C2      5.221390        2.763041
   13 H13       8 C8      5.236377        2.770971
    8 C8        4 H4      5.244935        2.775500
   16 H16       8 C8      5.253988        2.780291
   14 H14       8 C8      5.256441        2.781589
    6 O2        5 O1      5.291233        2.800000
   14 H14       2 C2      5.304635        2.807092
   11 H11       2 C2      5.311282        2.810610
   12 C12      11 H11     5.322261        2.816419
   16 H16      12 C12     5.322529        2.816561
    7 H7        1 C1      5.379529        2.846724
    6 O2        3 H3      5.448211        2.883069
   15 H15       6 O2      5.536194        2.929628
--
 
 
            Nuclear Potential Energy            248.39381098 au
 
--- Stop Module: gateway at Thu Jul  9 12:08:51 2026 /rc=_RC_ALL_IS_WELL_ ---
*** files: xmldump
    saved to directory /vscratch/grp-cyberwksp21/hclifford/openmolcas/PES/runs_relaxed_s1/R_3p00
--- Module gateway spent 1 second ---

*** symbolic link created: INPORB -> relaxed_scan_tbhp_casscf.RasOrb
--- Start Module: seward at Thu Jul  9 12:08:51 2026 ---
 
()()()()()()()()()()()()()()()()()()()()()()()()()()()()()()()()()()()()()()()()()()()()()()()()()()

                                              &SEWARD

                       only a single process is used, running in SERIAL mode
                        available to each process: 12 GB of memory, 1 thread
                                            pid: 1128801
()()()()()()()()()()()()()()()()()()()()()()()()()()()()()()()()()()()()()()()()()()()()()()()()()()
 
               SEWARD will generate:
                  Multipole Moment integrals up to order  2
                  Kinetic Energy integrals
                  Nuclear Attraction integrals (point charge)
                  One-Electron Hamiltonian integrals
                  Velocity integrals
                  Orbital angular momentum around (-0.0444  0.2794  0.3405 )
                  Velocity quadrupole around (-0.0444  0.2794  0.3405 )
                  Two-Electron Repulsion integrals
 
                   Integrals are discarded if absolute value <: 0.10E-13
                   Integral cutoff threshold is set to       <: 0.10E-15
 
            Nuclear Potential Energy            248.39381098 au
 
 
      Basis set specifications :
      Symmetry species         a  
      Basis functions          134
 
 
      Input file to MOLDEN was generated!
 
--- Stop Module: seward at Thu Jul  9 12:09:06 2026 /rc=_RC_ALL_IS_WELL_ ---
*** files: relaxed_scan_tbhp_casscf.GssOrb relaxed_scan_tbhp_casscf.guessorb.h5 relaxed_scan_tbhp_casscf.guessorb.molden xmldump
    saved to directory /vscratch/grp-cyberwksp21/hclifford/openmolcas/PES/runs_relaxed_s1/R_3p00
--- Module seward spent 15 seconds ---

*** symbolic link created: INPORB -> relaxed_scan_tbhp_casscf.RasOrb
--- Start Module: rasscf at Thu Jul  9 12:09:06 2026 ---
 
()()()()()()()()()()()()()()()()()()()()()()()()()()()()()()()()()()()()()()()()()()()()()()()()()()

                                              &RASSCF

                       only a single process is used, running in SERIAL mode
                        available to each process: 12 GB of memory, 1 thread
                                            pid: 1128813
()()()()()()()()()()()()()()()()()()()()()()()()()()()()()()()()()()()()()()()()()()()()()()()()()()
 
 
      Header of the ONEINT file:
      --------------------------
      
      Integrals generated by Gateway/Seward, Thu Jul  9 12:08:51 2026
 
 
      OrdInt status: non-squared
 
 
      Cartesian coordinates in Angstrom:
      -----------------------------------------------------
      No.  Label        X            Y            Z        
      -----------------------------------------------------
       1   C1         0.04120923   0.01958005  -0.48512377
       2   C2         0.49089070   1.48126518  -0.46184989
       3   H3         0.11297367   1.99097836   0.42461770
       4   H4         1.58067706   1.54817258  -0.45835558
       5   O1         0.55413355  -0.58630769   0.68493489
       6   O2        -0.31563210   0.74551612   2.98922465
       7   H7         0.11489983   0.16820878   2.35676257
       8   C8         0.57992455  -0.71928792  -1.70756233
       9   H9         0.28818237  -1.77028297  -1.67551787
      10   H10        1.67010888  -0.67077951  -1.73170890
      11   H11        0.19629015  -0.28125710  -2.63123961
      12   C12       -1.48067981  -0.10127485  -0.37566981
      13   H13       -1.78151016  -1.14923253  -0.32298478
      14   H14       -1.95012442   0.34397702  -1.25417997
      15   H15       -1.84808061   0.40849540   0.51521211
      16   H16        0.12305751   1.99965297  -1.34888388
      -----------------------------------------------------
      Nuclear repulsion energy =  248.39381098
 
++    Wave function specifications:
      -----------------------------
 
      Number of closed shell electrons          44
      Number of electrons in active shells       6
      Max number of holes in RAS1 space          0
      Max nr of electrons in RAS3 space          0
      Number of inactive orbitals               22
      Number of active orbitals                  4
      Number of secondary orbitals             108
      Spin quantum number                      0.0
      State symmetry                             1
--
 
++    Orbital specifications:
      -----------------------
 
      Symmetry species                           1
                                                 a
      Frozen orbitals                            0
      Inactive orbitals                         22
      Active orbitals                            4
      RAS1 orbitals                              0
      RAS2 orbitals                              4
      RAS3 orbitals                              0
      Secondary orbitals                       108
      Deleted orbitals                           0
      Number of basis functions                134
--
 
++    CI expansion specifications:
      ----------------------------
 
      Number of CSFs                            10
      Number of determinants                    10
      Number of root(s) required                 4
      Root chosen for geometry opt.              2
      CI roots used                              1     2     3     4
      weights                                0.250 0.250 0.250 0.250
      highest root included in the CI            4
      max. size of the explicit Hamiltonian     10
--
 
++    Optimization specifications:
      ----------------------------
 
      RASSCF algorithm: Conventional
      Maximum number of macro iterations       200
      Maximum number of SX iterations          100
      Threshold for RASSCF energy            0.100E-07
      Threshold for max MO rotation          0.100E+00
      Threshold for max BLB element          0.100E-03
      Level shift parameter                  0.100E+01
      Make Quasi-Newton update
--
 
      The MO-coefficients are taken from the file:
      INPORB                                                                                                                                                                                                                                                          
      Title: RASSCF average (pseudo-natural) orbitals                                      
 
      Total molecular charge    0.00
 
      ************************************************************************************************************************
      *                                                                                                                      *
      *                                            Wave function control section                                             *
      *                                                                                                                      *
      ************************************************************************************************************************
 
 
                                         RASSCF iterations: Energy and convergence statistics
                                         ----------------------------------------------------
 
      Iter CI   SX   CI       RASSCF       Energy    max ROT     max BLB   max BLB  Level Ln srch  Step   QN   Walltime
          iter iter root      energy       change     param      element    value   shift minimum  type update hh:mm:ss
 Nr of preliminary CI iterations:   1
        1   1    5    0  -306.94137072    0.00E+00  -0.60E-02   25  51 1 -0.13E-01*  0.87   0.00    SX    NO    0:00:02
        2   1    5    0  -306.94239154   -0.10E-02* -0.44E-02   25  51 1 -0.70E-02*  0.87   0.00    SX    NO    0:00:01
        3   1    5    0  -306.94268917   -0.30E-03* -0.34E-02   25  51 1 -0.39E-02*  0.87   0.00    SX    NO    0:00:01
        4   1    5    0  -306.94280928   -0.12E-03*  0.29E-02   25  51 1 -0.22E-02*  0.87   0.00    SX    NO    0:00:01
        5   1    5    0  -306.94286971   -0.60E-04*  0.43E-02   14  23 1 -0.14E-02*  0.87   2.50    LS   YES    0:00:01
        6   1    5    0  -306.94292613   -0.56E-04*  0.40E-02   14  23 1 -0.12E-02*  0.87   1.95    LS   YES    0:00:01
        7   1    5    0  -306.94294369   -0.18E-04* -0.26E-02   25  51 1  0.13E-02*  0.87   1.02    QN   YES    0:00:01
        8   1    5    0  -306.94295964   -0.16E-04* -0.38E-02   25  51 1  0.93E-03*  0.87   2.50    LS   YES    0:00:01
        9   1    5    0  -306.94297412   -0.14E-04* -0.31E-02   25  51 1  0.38E-03*  0.87   1.83    LS   YES    0:00:01
       10   1    4    0  -306.94297784   -0.37E-05* -0.75E-03    8  69 1  0.71E-03*  0.87   1.01    QN   YES    0:00:01
       11   1    4    0  -306.94298147   -0.36E-05* -0.11E-02    8  69 1  0.43E-03*  0.87   2.50    LS   YES    0:00:01
       12   1    4    0  -306.94298363   -0.22E-05* -0.39E-03   14  69 1  0.23E-03*  0.87   1.05    QN   YES    0:00:01
       13   1    4    0  -306.94298405   -0.42E-06* -0.30E-03   25  33 1  0.10E-03*  0.87   1.77    LS   YES    0:00:01
       14   1    4    0  -306.94298414   -0.98E-07* -0.11E-03    8  69 1 -0.97E-04   0.87   1.01    QN   YES    0:00:01
       15   1    4    0  -306.94298420   -0.53E-07* -0.41E-04    8  69 1 -0.29E-04   0.87   1.44    QN   YES    0:00:01
       16   1    3    0  -306.94298421   -0.10E-07* -0.16E-04    8  85 1  0.91E-05   0.87   1.22    QN   YES    0:00:01
       17   1    3    0  -306.94298421   -0.16E-08  -0.17E-04    8  69 1  0.61E-05   0.87   1.57    QN   YES    0:00:01
      Convergence after 17 iterations
       18   1    3    0  -306.94298421   -0.57E-09  -0.17E-04   25 134 1 -0.29E-05   0.87   1.57    QN   YES    0:00:01
 
      ************************************************************************************************************************
                                                      Wave function printout:
                       occupation of active orbitals, and spin coupling of open shells (u,d: Spin up or down)
      ************************************************************************************************************************
 
      Note: transformation to natural orbitals
      has been made, which may change the order of the CSFs.
 
      printout of CI-coefficients larger than  0.05 for root  1
      energy=    -306.946401
      conf/sym  1111     Coeff  Weight
             1  2220  -0.70535 0.49752
             2  22ud   0.14222 0.02023
             8  2022   0.68055 0.46315
             9  ud22   0.13490 0.01820
 
      printout of CI-coefficients larger than  0.05 for root  2
      energy=    -306.945567
      conf/sym  1111     Coeff  Weight
             1  2220   0.08226 0.00677
             2  22ud   0.49300 0.24305
             3  2202  -0.11257 0.01267
             5  2ud2  -0.50377 0.25378
             6  u22d  -0.49744 0.24745
             8  2022  -0.07881 0.00621
             9  ud22   0.46788 0.21891
            10  0222   0.10560 0.01115
 
      printout of CI-coefficients larger than  0.05 for root  3
      energy=    -306.940501
      conf/sym  1111     Coeff  Weight
             1  2220   0.11109 0.01234
             2  22ud   0.48984 0.23994
             3  2202  -0.11051 0.01221
             5  2ud2   0.50228 0.25229
             6  u22d   0.49565 0.24567
             8  2022  -0.10657 0.01136
             9  ud22   0.46420 0.21548
            10  0222   0.10351 0.01071
 
      printout of CI-coefficients larger than  0.05 for root  4
      energy=    -306.939467
      conf/sym  1111     Coeff  Weight
             2  22ud  -0.15255 0.02327
             3  2202  -0.71144 0.50614
             9  ud22  -0.14462 0.02092
            10  0222   0.66859 0.44701
 
      Natural orbitals and occupation numbers for root  1
      sym 1:   1.999338   1.037076   1.999073   0.964513
 
      Natural orbitals and occupation numbers for root  2
      sym 1:   1.999995   1.999993   1.005348   0.994663
 
      Natural orbitals and occupation numbers for root  3
      sym 1:   1.999997   1.999997   0.996258   1.003748
 
      Natural orbitals and occupation numbers for root  4
      sym 1:   1.062234   1.999081   0.939364   1.999321
 
      ************************************************************************************************************************
      *                                                                                                                      *
      *                                                    Final results                                                     *
      *                                                                                                                      *
      ************************************************************************************************************************
 
 
++    Wave function specifications:
      -----------------------------
 
      Number of closed shell electrons          44
      Number of electrons in active shells       6
      Max number of holes in RAS1 space          0
      Max nr of electrons in RAS3 space          0
      Number of inactive orbitals               22
      Number of active orbitals                  4
      Number of secondary orbitals             108
      Spin quantum number                      0.0
      State symmetry                             1
--
 
++    Orbital specifications:
      -----------------------
 
      Symmetry species                           1
                                                 a
      Frozen orbitals                            0
      Inactive orbitals                         22
      Active orbitals                            4
      RAS1 orbitals                              0
      RAS2 orbitals                              4
      RAS3 orbitals                              0
      Secondary orbitals                       108
      Deleted orbitals                           0
      Number of basis functions                134
--
 
++    CI expansion specifications:
      ----------------------------
 
      Number of CSFs                            10
      Number of determinants                    10
      Number of root(s) required                 4
      CI roots used                              1     2     3     4
      weights                                0.250 0.250 0.250 0.250
      highest root included in the CI            4
      Root passed to geometry opt.               2
--
 
++    Final optimization conditions:
      ------------------------------
 
      Average CI energy                            -306.94298421
      RASSCF energy for state  2                   -306.94556707
      Super-CI energy                                -0.00000000
      RASSCF energy change                           -0.00000000
      Max change in MO coefficients               0.153E-04
      Max non-diagonal density matrix element    -0.171E-04
      Maximum BLB matrix element                 -0.290E-05
      (orbital pair  25, 134 in symmetry   1)
      Norm of electronic gradient            0.560E-01
--
 
 
      Final state energy(ies):
      ------------------------
 
::    RASSCF root number  1 Total energy:   -306.94640099
::    RASSCF root number  2 Total energy:   -306.94556707
::    RASSCF root number  3 Total energy:   -306.94050136
::    RASSCF root number  4 Total energy:   -306.93946742
 
++    Molecular orbitals:
      -------------------
 
      Pseudonatural active orbitals and approximate occupation numbers
 
 
 
 
      Molecular orbitals for symmetry species 1: a  
 
 
      Orbital                 1         2         3         4         5         6         7         8         9        10
      Energy           -20.6125  -20.5827  -11.3037  -11.2383  -11.2351  -11.2343   -1.3497   -1.2768   -1.0684   -0.9569
      Occ. No.           2.0000    2.0000    2.0000    2.0000    2.0000    2.0000    2.0000    2.0000    2.0000    2.0000
 
     1 C1     1s        -0.0002    0.0000   -1.0021   -0.0046   -0.0044    0.0044   -0.0105    0.0015   -0.0172   -0.0006
     2 C1     2s        -0.0008    0.0001   -0.0104    0.0004    0.0004   -0.0004    0.3506   -0.0485    0.4205    0.0032
     3 C1     *s         0.0045   -0.0005    0.0172    0.0005    0.0005   -0.0005   -0.1281    0.0095    0.0075    0.0035
     4 C1     2px        0.0002   -0.0000   -0.0004    0.0001    0.0001    0.0003    0.0555   -0.0074   -0.0560   -0.1024
     5 C1     *px        0.0008   -0.0003   -0.0002    0.0004    0.0004    0.0005   -0.0245   -0.0001    0.0032    0.0049
     6 C1     2py       -0.0002    0.0000    0.0005   -0.0001    0.0003    0.0000   -0.0661    0.0091    0.0661    0.1859
     7 C1     *py       -0.0010    0.0005    0.0002   -0.0005    0.0005    0.0003    0.0286    0.0002   -0.0038   -0.0089
     8 C1     2pz        0.0004   -0.0001   -0.0009   -0.0003   -0.0000    0.0000    0.1311   -0.0152   -0.1319    0.1432
     9 C1     *pz        0.0021   -0.0000   -0.0001   -0.0003    0.0004   -0.0004   -0.0617    0.0085    0.0198   -0.0004
    10 C1     *d2-      -0.0000    0.0001    0.0000    0.0000   -0.0001    0.0000   -0.0069    0.0007    0.0064    0.0134
    11 C1     *d1-      -0.0001    0.0001    0.0001   -0.0001   -0.0000    0.0000   -0.0161    0.0020    0.0145   -0.0118
    12 C1     *d0        0.0000   -0.0000   -0.0001   -0.0001    0.0001   -0.0001    0.0139   -0.0015   -0.0112   -0.0168
    13 C1     *d1+       0.0001   -0.0000   -0.0000    0.0001    0.0000   -0.0000    0.0135   -0.0017   -0.0125    0.0082
    14 C1     *d2+      -0.0000    0.0000    0.0000    0.0000    0.0001    0.0001   -0.0011    0.0001    0.0007    0.0003
    15 C2     1s        -0.0001    0.0000   -0.0043   -0.0029    1.0018   -0.0104   -0.0021    0.0004   -0.0112   -0.0119
    16 C2     2s        -0.0002    0.0001    0.0003   -0.0007    0.0104    0.0005    0.0869   -0.0110    0.3564    0.3799
    17 C2     *s        -0.0002   -0.0003   -0.0036    0.0014   -0.0122   -0.0012   -0.0330   -0.0014   -0.1390   -0.1168
    18 C2     2px        0.0000    0.0000    0.0001   -0.0000    0.0000   -0.0002   -0.0085    0.0007   -0.0316   -0.0241
    19 C2     *px       -0.0001    0.0001    0.0004    0.0002    0.0003    0.0008    0.0033    0.0034    0.0166    0.0132
    20 C2     2py        0.0002    0.0000    0.0003    0.0001    0.0001   -0.0000   -0.0462    0.0069   -0.0706    0.0058
    21 C2     *py        0.0001   -0.0000    0.0014   -0.0006    0.0008    0.0003    0.0160   -0.0072    0.0363    0.0058
    22 C2     2pz       -0.0001    0.0000    0.0000    0.0001   -0.0001   -0.0000    0.0094   -0.0002   -0.0186    0.0230
    23 C2     *pz       -0.0003   -0.0002   -0.0002   -0.0006    0.0002    0.0001   -0.0005   -0.0018    0.0058   -0.0145
    24 C2     *d2-       0.0000   -0.0000    0.0000   -0.0000   -0.0001   -0.0001    0.0029   -0.0004    0.0054    0.0027
    25 C2     *d1-       0.0000   -0.0000   -0.0000    0.0001   -0.0000   -0.0000   -0.0011    0.0002    0.0023   -0.0012
    26 C2     *d0        0.0001   -0.0000   -0.0001    0.0000    0.0001    0.0001   -0.0046    0.0001   -0.0046   -0.0005
    27 C2     *d1+       0.0001    0.0000   -0.0000   -0.0001    0.0000    0.0000   -0.0018    0.0003    0.0009   -0.0008
    28 C2     *d2+       0.0000    0.0000   -0.0001   -0.0001    0.0002   -0.0001   -0.0058    0.0006   -0.0062    0.0001
    29 H3     1s        -0.0000    0.0000    0.0004   -0.0000    0.0002    0.0002    0.0221   -0.0011    0.1162    0.1800
    30 H3     *s        -0.0000    0.0001   -0.0001    0.0004    0.0011    0.0001   -0.0118    0.0108   -0.0505   -0.0792
    31 H3     *px        0.0000    0.0000    0.0000   -0.0000   -0.0002   -0.0001    0.0010    0.0001    0.0028    0.0051
    32 H3     *py        0.0001    0.0000    0.0000    0.0000    0.0001   -0.0000   -0.0020   -0.0004   -0.0058   -0.0050
    33 H3     *pz       -0.0000   -0.0001   -0.0000    0.0000    0.0004   -0.0000   -0.0011    0.0000   -0.0087   -0.0114
    34 H4     1s         0.0000    0.0000    0.0004   -0.0002    0.0001    0.0000    0.0216   -0.0037    0.1169    0.1425
    35 H4     *s        -0.0000   -0.0001   -0.0002   -0.0001    0.0011   -0.0004   -0.0099    0.0001   -0.0538   -0.0594
    36 H4     *px        0.0000    0.0000    0.0000   -0.0000    0.0005   -0.0000   -0.0022    0.0003   -0.0106   -0.0124
    37 H4     *py        0.0001   -0.0000    0.0001    0.0000   -0.0000    0.0000   -0.0011    0.0004   -0.0017   -0.0014
    38 H4     *pz       -0.0000    0.0000    0.0000    0.0001   -0.0000   -0.0000    0.0007   -0.0001   -0.0006    0.0007
    39 O1     1s         1.0008    0.0001    0.0001   -0.0000   -0.0001    0.0001   -0.0072    0.0005    0.0020    0.0001
    40 O1     2s         0.0033    0.0002   -0.0000   -0.0002   -0.0002    0.0002    0.8226   -0.0857   -0.3638   -0.0131
    41 O1     *s        -0.0060   -0.0001   -0.0012    0.0002    0.0002   -0.0002   -0.0147    0.0033   -0.0360   -0.0040
    42 O1     2px       -0.0007   -0.0000    0.0001    0.0000    0.0000   -0.0001   -0.0502    0.0072   -0.0242   -0.0146
    43 O1     *px        0.0011    0.0000   -0.0001    0.0001    0.0000    0.0003    0.0059    0.0001    0.0042    0.0071
    44 O1     2py        0.0008    0.0000   -0.0001   -0.0000   -0.0001    0.0000    0.0607   -0.0083    0.0274    0.0258
    45 O1     *py       -0.0013   -0.0001    0.0001   -0.0001    0.0003   -0.0000   -0.0065   -0.0006   -0.0052   -0.0124
    46 O1     2pz       -0.0014    0.0002    0.0003    0.0001    0.0000   -0.0000   -0.1039    0.0214   -0.0665    0.0176
    47 O1     *pz        0.0024   -0.0008   -0.0001   -0.0003   -0.0000    0.0000    0.0168   -0.0058    0.0076   -0.0065
    48 O1     *d2-       0.0000    0.0000   -0.0001   -0.0000    0.0000    0.0000   -0.0035    0.0003   -0.0010   -0.0011
    49 O1     *d1-       0.0001   -0.0000   -0.0002    0.0000   -0.0000    0.0000   -0.0069    0.0012   -0.0027   -0.0013
    50 O1     *d0       -0.0001    0.0000    0.0001    0.0000   -0.0000    0.0000    0.0069   -0.0007    0.0017   -0.0027
    51 O1     *d1+      -0.0001    0.0000    0.0002   -0.0000   -0.0000   -0.0000    0.0060   -0.0010    0.0022    0.0005
    52 O1     *d2+       0.0000    0.0000   -0.0000   -0.0000   -0.0001   -0.0001   -0.0007    0.0000   -0.0001   -0.0005
    53 O2     1s         0.0000    1.0004   -0.0000    0.0000    0.0000   -0.0000   -0.0002   -0.0055   -0.0007   -0.0005
    54 O2     2s         0.0001    0.0019   -0.0000    0.0001    0.0001   -0.0001    0.0870    0.9080    0.0185   -0.0121
    55 O2     *s        -0.0001   -0.0020    0.0001   -0.0001   -0.0002    0.0001   -0.0134   -0.0610    0.0075    0.0038
    56 O2     2px        0.0000    0.0010    0.0000    0.0000   -0.0000    0.0000    0.0077    0.0541   -0.0021    0.0017
    57 O2     *px       -0.0000   -0.0008    0.0000    0.0000   -0.0000   -0.0000   -0.0040   -0.0253    0.0009    0.0007
    58 O2     2py       -0.0000   -0.0013   -0.0000   -0.0000    0.0000   -0.0000   -0.0103   -0.0724    0.0028   -0.0022
    59 O2     *py        0.0000    0.0010   -0.0000   -0.0000   -0.0000   -0.0000    0.0052    0.0340   -0.0012   -0.0007
    60 O2     2pz       -0.0000   -0.0014   -0.0000   -0.0000    0.0000   -0.0000   -0.0120   -0.0805    0.0027   -0.0035
    61 O2     *pz        0.0001    0.0011    0.0000    0.0000    0.0001   -0.0001    0.0051    0.0381   -0.0009    0.0001
    62 O2     *d2-      -0.0000   -0.0001    0.0000   -0.0000    0.0000   -0.0000   -0.0003   -0.0032    0.0000   -0.0000
    63 O2     *d1-       0.0000    0.0002    0.0000    0.0000   -0.0000    0.0000    0.0006    0.0046   -0.0001    0.0001
    64 O2     *d0       -0.0000    0.0000    0.0000   -0.0000   -0.0000    0.0000    0.0004    0.0010    0.0000    0.0002
    65 O2     *d1+      -0.0000   -0.0001   -0.0000   -0.0000    0.0000   -0.0000   -0.0004   -0.0035    0.0001   -0.0001
    66 O2     *d2+      -0.0000   -0.0000    0.0000   -0.0000    0.0000   -0.0000   -0.0001   -0.0009    0.0000   -0.0000
    67 H7     1s        -0.0000   -0.0004   -0.0000    0.0000    0.0000   -0.0000    0.0532    0.3646   -0.0086    0.0013
    68 H7     *s         0.0001    0.0016   -0.0001    0.0000    0.0000   -0.0000   -0.0188   -0.1746   -0.0038   -0.0065
    69 H7     *px        0.0000    0.0003    0.0000    0.0000   -0.0000    0.0000   -0.0020   -0.0203   -0.0002    0.0004
    70 H7     *py       -0.0000   -0.0005   -0.0000   -0.0000    0.0000   -0.0000    0.0026    0.0273    0.0003   -0.0004
    71 H7     *pz       -0.0001   -0.0006    0.0000   -0.0000    0.0000   -0.0000    0.0028    0.0295    0.0008    0.0001
    72 C8     1s        -0.0000    0.0000   -0.0045    1.0019    0.0025   -0.0020   -0.0020    0.0004   -0.0116    0.0188
    73 C8     2s        -0.0002    0.0001    0.0003    0.0103   -0.0006    0.0006    0.0833   -0.0152    0.3704   -0.6100
    74 C8     *s        -0.0002    0.0001   -0.0034   -0.0122    0.0013   -0.0013   -0.0349    0.0091   -0.1372    0.1878
    75 C8     2px        0.0000   -0.0000    0.0001    0.0000   -0.0000   -0.0002   -0.0106    0.0017   -0.0372   -0.0037
    76 C8     *px       -0.0002   -0.0000    0.0004    0.0004    0.0001    0.0009    0.0060   -0.0001    0.0168   -0.0019
    77 C8     2py       -0.0001    0.0000   -0.0002   -0.0000   -0.0001    0.0000    0.0152   -0.0025    0.0498    0.0125
    78 C8     *py        0.0002   -0.0000   -0.0005   -0.0005    0.0009   -0.0001   -0.0079    0.0003   -0.0227   -0.0004
    79 C8     2pz       -0.0002    0.0000   -0.0002   -0.0002   -0.0000    0.0000    0.0420   -0.0071    0.0520   -0.0067
    80 C8     *pz       -0.0003    0.0000   -0.0013   -0.0005    0.0002   -0.0002   -0.0123    0.0040   -0.0280    0.0190
    81 C8     *d2-      -0.0001    0.0000    0.0000    0.0001    0.0000    0.0000    0.0001    0.0001   -0.0041    0.0001
    82 C8     *d1-      -0.0001   -0.0000    0.0001   -0.0002    0.0001   -0.0000    0.0052   -0.0008    0.0069   -0.0010
    83 C8     *d0       -0.0001    0.0000    0.0001   -0.0001   -0.0001    0.0001    0.0050   -0.0004    0.0025   -0.0013
    84 C8     *d1+       0.0000    0.0000   -0.0000    0.0001   -0.0000    0.0001   -0.0038    0.0006   -0.0051    0.0012
    85 C8     *d2+      -0.0000    0.0000   -0.0000    0.0000   -0.0001   -0.0001   -0.0001    0.0000   -0.0012   -0.0001
    86 H9     1s         0.0000    0.0000    0.0004    0.0002   -0.0000    0.0002    0.0207   -0.0043    0.1223   -0.2633
    87 H9     *s         0.0000   -0.0000   -0.0002    0.0011    0.0004    0.0001   -0.0101    0.0016   -0.0552    0.1145
    88 H9     *px        0.0000   -0.0000    0.0000   -0.0002   -0.0000   -0.0001    0.0008   -0.0002    0.0020   -0.0062
    89 H9     *py       -0.0000    0.0000   -0.0000   -0.0004   -0.0000    0.0000    0.0022   -0.0004    0.0110   -0.0198
    90 H9     *pz       -0.0001    0.0000   -0.0000    0.0001    0.0000    0.0000    0.0008   -0.0001    0.0005    0.0011
    91 H10    1s         0.0000    0.0000    0.0004    0.0002   -0.0002    0.0000    0.0204   -0.0043    0.1225   -0.2574
    92 H10    *s        -0.0000    0.0000   -0.0002    0.0011   -0.0001   -0.0004   -0.0100    0.0016   -0.0553    0.1111
    93 H10    *px        0.0000   -0.0000    0.0000    0.0004   -0.0000   -0.0000   -0.0022    0.0004   -0.0111    0.0206
    94 H10    *py       -0.0000    0.0000   -0.0000    0.0001   -0.0001    0.0000   -0.0002    0.0001    0.0005    0.0015
    95 H10    *pz       -0.0001    0.0000   -0.0000    0.0000   -0.0000   -0.0000    0.0009   -0.0001    0.0010   -0.0003
    96 H11    1s        -0.0001   -0.0000    0.0002    0.0002   -0.0002    0.0002    0.0169   -0.0027    0.1379   -0.2471
    97 H11    *s         0.0001   -0.0000   -0.0003    0.0012   -0.0001    0.0001   -0.0074    0.0018   -0.0654    0.1083
    98 H11    *px       -0.0000   -0.0000    0.0000   -0.0002   -0.0000   -0.0001    0.0003   -0.0001    0.0041   -0.0071
    99 H11    *py        0.0000    0.0000   -0.0000    0.0003   -0.0001   -0.0000   -0.0003    0.0001   -0.0046    0.0083
   100 H11    *pz        0.0000   -0.0000   -0.0001   -0.0003   -0.0000    0.0000    0.0020   -0.0004    0.0097   -0.0174
   101 C12    1s        -0.0001    0.0000   -0.0042   -0.0023   -0.0108   -1.0018   -0.0021    0.0004   -0.0110   -0.0077
   102 C12    2s        -0.0003    0.0000    0.0003   -0.0007   -0.0008   -0.0104    0.0887   -0.0116    0.3509    0.2479
   103 C12    *s        -0.0003   -0.0001   -0.0037    0.0014    0.0014    0.0122   -0.0340   -0.0011   -0.1372   -0.0773
   104 C12    2px       -0.0002    0.0000   -0.0003   -0.0001   -0.0001    0.0001    0.0482   -0.0070    0.0740    0.0003
   105 C12    *px       -0.0000    0.0000   -0.0015    0.0005    0.0005    0.0008   -0.0166    0.0061   -0.0386   -0.0062
   106 C12    2py        0.0000   -0.0000   -0.0000    0.0001   -0.0001   -0.0000   -0.0017    0.0008    0.0152    0.0317
   107 C12    *py        0.0001   -0.0001   -0.0000   -0.0003    0.0008    0.0001    0.0005   -0.0048   -0.0081   -0.0154
   108 C12    2pz       -0.0001    0.0000    0.0001    0.0001    0.0000    0.0001    0.0072    0.0000   -0.0234    0.0223
   109 C12    *pz       -0.0002   -0.0001   -0.0001   -0.0007   -0.0001   -0.0002   -0.0001   -0.0019    0.0081   -0.0134
   110 C12    *d2-       0.0000   -0.0000   -0.0000   -0.0000    0.0001    0.0000    0.0004   -0.0001    0.0022    0.0029
   111 C12    *d1-      -0.0001   -0.0000    0.0000    0.0001   -0.0000    0.0000    0.0014   -0.0003   -0.0005    0.0003
   112 C12    *d0        0.0001   -0.0000   -0.0001    0.0000   -0.0001   -0.0001   -0.0048    0.0002   -0.0042   -0.0003
   113 C12    *d1+      -0.0000    0.0000    0.0000   -0.0001   -0.0000   -0.0000    0.0004   -0.0001   -0.0033    0.0013
   114 C12    *d2+      -0.0000   -0.0000    0.0001    0.0000   -0.0000    0.0002    0.0065   -0.0007    0.0077    0.0007
   115 H13    1s         0.0000    0.0000    0.0004   -0.0002   -0.0000   -0.0001    0.0222   -0.0038    0.1148    0.0830
   116 H13    *s        -0.0000   -0.0001   -0.0002   -0.0001    0.0004   -0.0011   -0.0100    0.0001   -0.0529   -0.0335
   117 H13    *px       -0.0001    0.0000   -0.0001   -0.0000   -0.0000    0.0001    0.0016   -0.0005    0.0038    0.0031
   118 H13    *py        0.0000   -0.0000    0.0000    0.0000   -0.0000    0.0005    0.0020   -0.0003    0.0097    0.0074
   119 H13    *pz       -0.0000    0.0000    0.0000    0.0001    0.0000   -0.0000    0.0006   -0.0001   -0.0011    0.0003
   120 H14    1s        -0.0000   -0.0000    0.0002   -0.0002   -0.0002   -0.0002    0.0173   -0.0016    0.1326    0.0998
   121 H14    *s         0.0002   -0.0000   -0.0003   -0.0001   -0.0001   -0.0012   -0.0092    0.0015   -0.0626   -0.0440
   122 H14    *px        0.0001   -0.0000   -0.0001   -0.0000   -0.0000    0.0001    0.0013   -0.0003    0.0046    0.0036
   123 H14    *py        0.0000    0.0000   -0.0000    0.0000   -0.0001   -0.0002   -0.0008    0.0002   -0.0045   -0.0025
   124 H14    *pz       -0.0000    0.0000   -0.0000    0.0001    0.0000    0.0004    0.0015    0.0000    0.0090    0.0072
   125 H15    1s        -0.0000    0.0000    0.0004   -0.0000   -0.0002   -0.0002    0.0225   -0.0015    0.1143    0.1270
   126 H15    *s        -0.0000    0.0001   -0.0002    0.0004   -0.0001   -0.0011   -0.0118    0.0106   -0.0498   -0.0563
   127 H15    *px       -0.0001   -0.0000   -0.0001   -0.0000   -0.0000    0.0001    0.0018    0.0003    0.0045    0.0016
   128 H15    *py        0.0000   -0.0000   -0.0000    0.0000   -0.0001   -0.0002   -0.0014   -0.0001   -0.0042   -0.0042
   129 H15    *pz       -0.0000   -0.0000    0.0000    0.0000    0.0000   -0.0004   -0.0012   -0.0001   -0.0087   -0.0079
   130 H16    1s        -0.0000   -0.0000    0.0002   -0.0002    0.0002    0.0002    0.0170   -0.0015    0.1343    0.1533
   131 H16    *s         0.0001   -0.0000   -0.0003   -0.0001    0.0012    0.0001   -0.0088    0.0015   -0.0632   -0.0673
   132 H16    *px       -0.0000   -0.0000    0.0000   -0.0000   -0.0002   -0.0001    0.0005   -0.0001    0.0038    0.0036
   133 H16    *py       -0.0001    0.0000    0.0001    0.0000    0.0001   -0.0000   -0.0014    0.0003   -0.0052   -0.0060
   134 H16    *pz       -0.0000    0.0000   -0.0000    0.0001   -0.0004    0.0000    0.0015    0.0000    0.0092    0.0109
 
 
      Orbital                11        12        13        14        15        16        17        18        19        20
      Energy            -0.9553   -0.7682   -0.6522   -0.6312   -0.6230   -0.6193   -0.5614   -0.5610   -0.5334   -0.5310
      Occ. No.           2.0000    2.0000    2.0000    2.0000    2.0000    2.0000    2.0000    2.0000    2.0000    2.0000
 
     1 C1     1s         0.0002   -0.0007    0.0033    0.0002   -0.0001   -0.0004    0.0001   -0.0002    0.0041   -0.0001
     2 C1     2s        -0.0012   -0.5483   -0.1072    0.0106    0.0007   -0.0190   -0.0016    0.0030   -0.0839    0.0024
     3 C1     *s        -0.0011    0.0995   -0.0341   -0.0089    0.0007    0.0079   -0.0025    0.0047   -0.0683    0.0017
     4 C1     2px        0.2150   -0.0333    0.1467   -0.0590   -0.2957   -0.1666   -0.0913    0.0125    0.1236   -0.0143
     5 C1     *px       -0.0135    0.0252   -0.0273   -0.0029    0.0217    0.0126    0.0063    0.0005   -0.0445    0.0019
     6 C1     2py        0.1380    0.0389   -0.1824    0.0984   -0.2307    0.2125   -0.0491   -0.0709   -0.1525   -0.0077
     7 C1     *py       -0.0083   -0.0304    0.0347    0.0000    0.0169   -0.0142    0.0054    0.0040    0.0552   -0.0005
     8 C1     2pz       -0.0252   -0.0631    0.2593    0.2385    0.0126    0.1323    0.0313   -0.0713    0.2891   -0.0093
     9 C1     *pz        0.0005    0.0380   -0.0450   -0.0100   -0.0009   -0.0096   -0.0044    0.0083   -0.0861    0.0026
    10 C1     *d2-       0.0040    0.0031   -0.0041   -0.0029    0.0007   -0.0047    0.0053   -0.0215   -0.0154    0.0001
    11 C1     *d1-       0.0031    0.0069   -0.0093   -0.0007    0.0027    0.0004   -0.0170   -0.0011   -0.0327    0.0007
    12 C1     *d0        0.0020   -0.0054    0.0069    0.0002   -0.0003    0.0007    0.0054   -0.0107    0.0237   -0.0005
    13 C1     *d1+       0.0026   -0.0058    0.0078    0.0006    0.0035   -0.0001   -0.0180   -0.0093    0.0282   -0.0012
    14 C1     *d2+      -0.0252    0.0005   -0.0007   -0.0006   -0.0026   -0.0010    0.0044   -0.0040   -0.0015    0.0009
    15 C2     1s        -0.0157   -0.0093   -0.0009    0.0010   -0.0032    0.0019   -0.0002   -0.0006    0.0003   -0.0002
    16 C2     2s         0.4909    0.1787    0.0560   -0.0107    0.0512   -0.0209   -0.0104   -0.0103   -0.0208    0.0008
    17 C2     *s        -0.1446   -0.0120   -0.0016    0.0003    0.0170   -0.0176   -0.0039    0.0001   -0.0037    0.0026
    18 C2     2px        0.0264    0.0575    0.1687   -0.0973   -0.1206   -0.2799   -0.0356   -0.2592   -0.0785   -0.3053
    19 C2     *px       -0.0106   -0.0221   -0.0357    0.0188    0.0288    0.0584    0.0093    0.0324    0.0159    0.0402
    20 C2     2py       -0.0077    0.2181    0.1208   -0.0495    0.3069   -0.0415    0.0844    0.1402    0.1880    0.1018
    21 C2     *py        0.0137   -0.0628   -0.0246    0.0151   -0.0656    0.0087   -0.0165   -0.0210   -0.0331   -0.0131
    22 C2     2pz       -0.0053   -0.0091    0.1615    0.2421    0.0426    0.1009   -0.3524   -0.2371   -0.2069    0.2088
    23 C2     *pz        0.0014    0.0048   -0.0493   -0.0516   -0.0011   -0.0298    0.0466    0.0371    0.0336   -0.0259
    24 C2     *d2-      -0.0010   -0.0073   -0.0068    0.0027   -0.0048    0.0051   -0.0001   -0.0051   -0.0077   -0.0026
    25 C2     *d1-       0.0008   -0.0005   -0.0006    0.0040   -0.0007   -0.0000   -0.0121   -0.0058   -0.0136    0.0067
    26 C2     *d0       -0.0011    0.0094    0.0001   -0.0007    0.0123    0.0028    0.0037    0.0096    0.0074    0.0105
    27 C2     *d1+       0.0002    0.0013   -0.0058   -0.0081   -0.0004   -0.0024    0.0083    0.0063    0.0042   -0.0059
    28 C2     *d2+      -0.0023    0.0116    0.0077   -0.0030    0.0072   -0.0077    0.0017   -0.0062   -0.0012   -0.0085
    29 H3     1s         0.1935    0.1565    0.1484    0.1958    0.2372    0.1430   -0.2437   -0.0402   -0.0757    0.3415
    30 H3     *s        -0.0837   -0.0604   -0.0364   -0.0683   -0.0767   -0.0377    0.0754    0.0126    0.0207   -0.0946
    31 H3     *px        0.0061    0.0045    0.0067    0.0019    0.0022   -0.0022   -0.0053   -0.0062   -0.0025    0.0005
    32 H3     *py       -0.0080   -0.0014   -0.0032   -0.0060   -0.0013   -0.0039    0.0080    0.0036    0.0053   -0.0066
    33 H3     *pz       -0.0129   -0.0092   -0.0046   -0.0034   -0.0113   -0.0058    0.0034   -0.0025   -0.0013   -0.0112
    34 H4     1s         0.2242    0.1532    0.1948   -0.1002   -0.0741   -0.2861   -0.0372   -0.2618   -0.0909   -0.3155
    35 H4     *s        -0.0990   -0.0482   -0.0649    0.0316    0.0234    0.0870    0.0124    0.0775    0.0169    0.0839
    36 H4     *px       -0.0170   -0.0101   -0.0083    0.0044    0.0010    0.0114    0.0015    0.0087    0.0028    0.0110
    37 H4     *py        0.0003    0.0030    0.0008   -0.0009    0.0051    0.0005    0.0014    0.0039    0.0041    0.0029
    38 H4     *pz       -0.0003   -0.0007    0.0038    0.0050    0.0007    0.0028   -0.0069   -0.0049   -0.0041    0.0043
    39 O1     1s        -0.0000   -0.0007    0.0022    0.0005    0.0000   -0.0000   -0.0001    0.0002   -0.0011    0.0000
    40 O1     2s         0.0060    0.2437   -0.0975   -0.1134   -0.0023    0.0629   -0.0055    0.0071   -0.0402    0.0013
    41 O1     *s         0.0015    0.0639   -0.0631   -0.0463   -0.0012    0.0200   -0.0015    0.0022   -0.0038    0.0001
    42 O1     2px        0.0310    0.1266   -0.1156   -0.0825   -0.0610   -0.0058   -0.0561    0.0217   -0.1747    0.0024
    43 O1     *px       -0.0138   -0.0050   -0.0016    0.0088    0.0194    0.0091    0.0111   -0.0022   -0.0073    0.0008
    44 O1     2py        0.0187   -0.1490    0.1325    0.1050   -0.0462    0.0085   -0.0138   -0.0533    0.2085   -0.0084
    45 O1     *py       -0.0087    0.0062    0.0020   -0.0116    0.0149   -0.0121    0.0053    0.0090    0.0085    0.0003
    46 O1     2pz       -0.0020    0.3302   -0.3314   -0.1008    0.0016    0.0741   -0.0080    0.0068   -0.4569    0.0121
    47 O1     *pz        0.0010   -0.0094   -0.0013    0.0009   -0.0005   -0.0142   -0.0026    0.0059   -0.0177    0.0005
    48 O1     *d2-       0.0007    0.0039   -0.0022   -0.0036   -0.0007   -0.0017   -0.0008    0.0001   -0.0038    0.0002
    49 O1     *d1-      -0.0014    0.0097   -0.0073   -0.0031    0.0033   -0.0010    0.0002    0.0020   -0.0086    0.0004
    50 O1     *d0        0.0004   -0.0073    0.0052    0.0001   -0.0002   -0.0053   -0.0006    0.0017    0.0072   -0.0002
    51 O1     *d1+      -0.0020   -0.0080    0.0060    0.0025    0.0040    0.0005    0.0016   -0.0009    0.0071    0.0000
    52 O1     *d2+      -0.0023    0.0007   -0.0002   -0.0009    0.0033   -0.0003    0.0026    0.0008   -0.0008    0.0001
    53 O2     1s         0.0001    0.0015   -0.0019   -0.0006    0.0000   -0.0006   -0.0002    0.0004   -0.0014    0.0000
    54 O2     2s         0.0004   -0.0443    0.1313   -0.1948   -0.0066    0.1510    0.0007   -0.0072   -0.0254    0.0004
    55 O2     *s        -0.0007   -0.0283    0.0801   -0.0840   -0.0034    0.0828    0.0021   -0.0094   -0.0034    0.0000
    56 O2     2px        0.0002    0.0252   -0.1531    0.2334    0.0095   -0.2058   -0.0019    0.0115    0.0660    0.0001
    57 O2     *px       -0.0000   -0.0039    0.0120   -0.0120   -0.0003    0.0122    0.0002   -0.0015   -0.0003   -0.0000
    58 O2     2py        0.0003   -0.0339    0.2047   -0.3118   -0.0094    0.2748   -0.0012   -0.0169   -0.0876    0.0048
    59 O2     *py        0.0002    0.0051   -0.0159    0.0165    0.0008   -0.0165   -0.0005    0.0018    0.0008   -0.0001
    60 O2     2pz        0.0001   -0.0378    0.2168   -0.3378   -0.0117    0.2919    0.0010   -0.0181   -0.0905    0.0025
    61 O2     *pz        0.0000    0.0049   -0.0165    0.0200    0.0007   -0.0177   -0.0002    0.0013    0.0009   -0.0000
    62 O2     *d2-      -0.0000   -0.0008    0.0046   -0.0068   -0.0002    0.0061    0.0000   -0.0004   -0.0019    0.0001
    63 O2     *d1-      -0.0001    0.0011   -0.0067    0.0100    0.0003   -0.0089    0.0002    0.0006    0.0026   -0.0003
    64 O2     *d0       -0.0000    0.0002   -0.0013    0.0026    0.0001   -0.0017   -0.0000    0.0000    0.0004    0.0000
    65 O2     *d1+      -0.0001   -0.0008    0.0050   -0.0074   -0.0003    0.0067    0.0003   -0.0003   -0.0020   -0.0001
    66 O2     *d2+      -0.0000   -0.0002    0.0014   -0.0020   -0.0001    0.0018    0.0000   -0.0001   -0.0005   -0.0000
    67 H7     1s         0.0002    0.0617   -0.2888    0.4071    0.0142   -0.3620   -0.0017    0.0234    0.0895   -0.0030
    68 H7     *s         0.0008   -0.0062    0.1056   -0.1970   -0.0061    0.1602   -0.0017   -0.0045   -0.0680    0.0022
    69 H7     *px        0.0000   -0.0012    0.0076   -0.0118   -0.0001    0.0105   -0.0003   -0.0009   -0.0037    0.0004
    70 H7     *py        0.0001    0.0014   -0.0101    0.0162    0.0008   -0.0144   -0.0003    0.0009    0.0053    0.0001
    71 H7     *pz       -0.0001    0.0001   -0.0104    0.0184    0.0005   -0.0161    0.0001    0.0008    0.0063   -0.0003
    72 C8     1s        -0.0023   -0.0090   -0.0001   -0.0035   -0.0000   -0.0025   -0.0002    0.0006   -0.0005    0.0000
    73 C8     2s         0.0738    0.1829    0.0370    0.0444    0.0007    0.0384   -0.0053    0.0146   -0.0275    0.0007
    74 C8     *s        -0.0221   -0.0264    0.0095    0.0297   -0.0000    0.0123    0.0005   -0.0011    0.0141   -0.0001
    75 C8     2px        0.0342    0.0723    0.1556    0.1176   -0.3099    0.0092    0.0601    0.2559   -0.0339    0.3006
    76 C8     *px       -0.0151   -0.0226   -0.0367   -0.0261    0.0648    0.0028   -0.0033   -0.0332    0.0058   -0.0388
    77 C8     2py        0.0251   -0.1010   -0.2007   -0.1427   -0.2468   -0.0253    0.1852   -0.2126    0.0551    0.2415
    78 C8     *py       -0.0121    0.0313    0.0467    0.0325    0.0516   -0.0006   -0.0213    0.0299   -0.0086   -0.0310
    79 C8     2pz       -0.0007   -0.1989    0.0507   -0.1343    0.0101   -0.2717   -0.1254    0.3535   -0.2513   -0.0044
    80 C8     *pz       -0.0012    0.0547   -0.0183    0.0330   -0.0023    0.0631    0.0196   -0.0557    0.0476    0.0002
    81 C8     *d2-       0.0005    0.0031    0.0096    0.0049    0.0018   -0.0003   -0.0039    0.0058    0.0014   -0.0038
    82 C8     *d1-       0.0021   -0.0118   -0.0020   -0.0063   -0.0046   -0.0108   -0.0049    0.0099   -0.0101    0.0016
    83 C8     *d0        0.0000   -0.0079   -0.0037   -0.0056    0.0003   -0.0032    0.0042   -0.0119    0.0104   -0.0002
    84 C8     *d1+       0.0025    0.0087    0.0007    0.0047   -0.0052    0.0082    0.0010   -0.0100    0.0086    0.0004
    85 C8     *d2+      -0.0017    0.0012    0.0023    0.0016   -0.0088    0.0004    0.0074    0.0036    0.0016    0.0164
    86 H9     1s         0.0073    0.1561    0.1643    0.1220    0.3130    0.0315   -0.2060    0.1559   -0.0762   -0.3328
    87 H9     *s         0.0001   -0.0505   -0.0538   -0.0368   -0.0971   -0.0103    0.0599   -0.0472    0.0142    0.0881
    88 H9     *px        0.0005    0.0040    0.0056    0.0040   -0.0014    0.0002   -0.0017    0.0075   -0.0014    0.0013
    89 H9     *py        0.0020    0.0092    0.0055    0.0047    0.0127    0.0023   -0.0068    0.0039   -0.0023   -0.0125
    90 H9     *pz        0.0013   -0.0041    0.0019   -0.0022   -0.0010   -0.0051   -0.0026    0.0066   -0.0048    0.0007
    91 H10    1s         0.0558    0.1560    0.1569    0.1337   -0.3122    0.0317    0.0712    0.2506   -0.0485    0.3319
    92 H10    *s        -0.0275   -0.0506   -0.0510   -0.0406    0.0968   -0.0101   -0.0196   -0.0743    0.0075   -0.0874
    93 H10    *px       -0.0031   -0.0101   -0.0062   -0.0060    0.0120   -0.0025   -0.0024   -0.0083    0.0014   -0.0119
    94 H10    *py       -0.0004   -0.0020   -0.0042   -0.0027   -0.0041    0.0001    0.0036   -0.0049    0.0011    0.0041
    95 H10    *pz       -0.0014   -0.0036    0.0024   -0.0018    0.0005   -0.0049   -0.0020    0.0075   -0.0049    0.0000
    96 H11    1s         0.0301    0.1805   -0.1529    0.0388    0.0019    0.2378    0.1646   -0.4898    0.2738   -0.0059
    97 H11    *s        -0.0130   -0.0603    0.0405   -0.0095   -0.0005   -0.0624   -0.0440    0.1315   -0.0549    0.0009
    98 H11    *px        0.0017    0.0054   -0.0005    0.0031   -0.0062    0.0046    0.0044   -0.0037    0.0030    0.0064
    99 H11    *py       -0.0003   -0.0065    0.0002   -0.0036   -0.0050   -0.0054    0.0005    0.0059   -0.0028    0.0052
   100 H11    *pz        0.0021    0.0076   -0.0060    0.0003    0.0003    0.0072    0.0052   -0.0159    0.0073   -0.0004
   101 C12    1s         0.0182   -0.0093   -0.0008    0.0010    0.0032    0.0017    0.0006   -0.0003    0.0004    0.0001
   102 C12    2s        -0.5719    0.1794    0.0537   -0.0077   -0.0537   -0.0230    0.0147   -0.0025   -0.0178    0.0002
   103 C12    *s         0.1694   -0.0130   -0.0003   -0.0015   -0.0164   -0.0149    0.0031    0.0018   -0.0033   -0.0022
   104 C12    2px       -0.0023   -0.2247   -0.1342    0.0697    0.2758    0.1087    0.1279   -0.0227   -0.1674    0.0291
   105 C12    *px        0.0131    0.0664    0.0265   -0.0204   -0.0588   -0.0219   -0.0222    0.0032    0.0283   -0.0041
   106 C12    2py        0.0200   -0.0094   -0.1363    0.1011   -0.1764    0.2659   -0.1918    0.1976    0.1062   -0.3337
   107 C12    *py       -0.0100    0.0076    0.0293   -0.0183    0.0408   -0.0561    0.0290   -0.0220   -0.0208    0.0444
   108 C12    2pz       -0.0009    0.0036    0.1735    0.2310   -0.0491    0.0867    0.4222    0.0109   -0.2263   -0.1841
   109 C12    *pz        0.0020    0.0016   -0.0523   -0.0505    0.0030   -0.0256   -0.0594    0.0032    0.0348    0.0227
   110 C12    *d2-       0.0011   -0.0018   -0.0025    0.0016    0.0014    0.0015    0.0040   -0.0062   -0.0075    0.0060
   111 C12    *d1-      -0.0001   -0.0012    0.0055    0.0086   -0.0005    0.0027    0.0124    0.0011   -0.0072   -0.0078
   112 C12    *d0        0.0012    0.0093   -0.0007   -0.0004   -0.0121    0.0026   -0.0081    0.0058    0.0062   -0.0108
   113 C12    *d1+       0.0006    0.0020    0.0023   -0.0023   -0.0026    0.0002   -0.0111   -0.0018    0.0138    0.0035
   114 C12    *d2+      -0.0018   -0.0135   -0.0095    0.0031    0.0089    0.0092   -0.0017    0.0035   -0.0008   -0.0061
   115 H13    1s        -0.2532    0.1539    0.1937   -0.1043    0.0628   -0.2864    0.1799   -0.1884   -0.0894    0.3221
   116 H13    *s         0.1109   -0.0485   -0.0647    0.0327   -0.0199    0.0874   -0.0549    0.0550    0.0156   -0.0855
   117 H13    *px       -0.0043   -0.0007    0.0014   -0.0001    0.0051   -0.0027    0.0051   -0.0036   -0.0046    0.0051
   118 H13    *py       -0.0191    0.0106    0.0082   -0.0044   -0.0006   -0.0109    0.0056   -0.0054   -0.0020    0.0101
   119 H13    *pz        0.0010   -0.0010    0.0034    0.0051   -0.0009    0.0032    0.0080    0.0005   -0.0042   -0.0046
   120 H14    1s        -0.2327    0.1694   -0.1043   -0.1781   -0.1817   -0.0198   -0.4865    0.0829    0.3324   -0.0023
   121 H14    *s         0.1009   -0.0547    0.0262    0.0484    0.0464    0.0035    0.1314   -0.0226   -0.0712   -0.0009
   122 H14    *px       -0.0084    0.0018   -0.0045   -0.0030   -0.0004    0.0010   -0.0096    0.0015    0.0057    0.0005
   123 H14    *py        0.0083   -0.0050    0.0001    0.0059    0.0007    0.0061    0.0069    0.0023   -0.0042   -0.0071
   124 H14    *pz       -0.0154    0.0091   -0.0013   -0.0034   -0.0095    0.0006   -0.0125    0.0040    0.0082   -0.0039
   125 H15    1s        -0.2329    0.1565    0.1418    0.2020   -0.2340    0.1411    0.2212    0.1116   -0.1015   -0.3329
   126 H15    *s         0.1009   -0.0598   -0.0353   -0.0699    0.0747   -0.0378   -0.0686   -0.0341    0.0274    0.0921
   127 H15    *px       -0.0065   -0.0001    0.0014    0.0052   -0.0001    0.0039    0.0066    0.0019   -0.0049   -0.0054
   128 H15    *py        0.0095   -0.0050   -0.0072   -0.0033    0.0029    0.0011   -0.0096    0.0013    0.0042    0.0019
   129 H15    *pz        0.0155   -0.0091   -0.0040   -0.0040    0.0112   -0.0058   -0.0014   -0.0042   -0.0005    0.0114
   130 H16    1s         0.2002    0.1701   -0.0965   -0.1918    0.1806   -0.0179    0.3492    0.3558    0.3165   -0.0186
   131 H16    *s        -0.0865   -0.0557    0.0243    0.0533   -0.0462    0.0024   -0.0942   -0.0968   -0.0663    0.0055
   132 H16    *px        0.0062    0.0049    0.0010   -0.0054    0.0008   -0.0061    0.0056    0.0010    0.0028   -0.0069
   133 H16    *py       -0.0081   -0.0025    0.0043    0.0042   -0.0002    0.0004   -0.0080   -0.0068   -0.0055    0.0027
   134 H16    *pz        0.0131    0.0091   -0.0012   -0.0039    0.0095    0.0010    0.0080    0.0109    0.0082    0.0036
 
 
      Orbital                21        22        23        24        25        26
      Energy            -0.5010   -0.5000   -0.3769    0.0000   -0.0003   -0.0000
      Occ. No.           2.0000    2.0000    1.5238    1.5139    1.4762    1.4861
 
     1 C1     1s        -0.0004   -0.0001   -0.0001   -0.0001   -0.0004    0.0000
     2 C1     2s         0.0010    0.0012   -0.0009   -0.0007   -0.0061    0.0011
     3 C1     *s         0.0066    0.0027    0.0181    0.0025   -0.0094    0.0019
     4 C1     2px       -0.1847   -0.4087   -0.0444    0.0580   -0.0445   -0.0588
     5 C1     *px        0.0303    0.0644    0.0172    0.0111    0.0003    0.0281
     6 C1     2py        0.3552   -0.2470    0.0507    0.0482    0.0501   -0.0496
     7 C1     *py       -0.0581    0.0379   -0.0239    0.0075    0.0043    0.0200
     8 C1     2pz        0.2638    0.0459    0.0331    0.0000    0.0256    0.0014
     9 C1     *pz       -0.0383   -0.0069   -0.0239   -0.0016    0.0305   -0.0024
    10 C1     *d2-       0.0219   -0.0040   -0.0050    0.0041   -0.0060   -0.0036
    11 C1     *d1-      -0.0139   -0.0068   -0.0077   -0.0103   -0.0106    0.0117
    12 C1     *d0       -0.0196   -0.0029   -0.0221   -0.0003   -0.0231    0.0003
    13 C1     *d1+       0.0106   -0.0079    0.0058   -0.0110    0.0082    0.0127
    14 C1     *d2+       0.0006    0.0328   -0.0000   -0.0205   -0.0002    0.0188
    15 C2     1s         0.0003    0.0002   -0.0014   -0.0006    0.0009    0.0000
    16 C2     2s         0.0563   -0.0692    0.0339    0.0637    0.0294   -0.0562
    17 C2     *s         0.0121   -0.0242    0.0315    0.0236   -0.0203   -0.0124
    18 C2     2px        0.0436    0.3189   -0.0206   -0.0098   -0.0109    0.0061
    19 C2     *px       -0.0010   -0.0329   -0.0145   -0.0067    0.0053   -0.0080
    20 C2     2py       -0.2963    0.2494   -0.0440   -0.0900   -0.0509    0.0961
    21 C2     *py        0.0330   -0.0307    0.0151    0.0331   -0.0079    0.0098
    22 C2     2pz       -0.2056    0.0371    0.0311    0.0324    0.0049   -0.0120
    23 C2     *pz        0.0155   -0.0045    0.0057   -0.0105   -0.0149    0.0170
    24 C2     *d2-       0.0139    0.0008    0.0021   -0.0001    0.0022   -0.0009
    25 C2     *d1-      -0.0129   -0.0019   -0.0008    0.0010   -0.0001   -0.0004
    26 C2     *d0       -0.0120   -0.0017   -0.0013   -0.0013   -0.0032    0.0040
    27 C2     *d1+       0.0060   -0.0019   -0.0017   -0.0022   -0.0003    0.0017
    28 C2     *d2+      -0.0001    0.0232    0.0002   -0.0021   -0.0003    0.0034
    29 H3     1s        -0.3393   -0.0033    0.0166    0.0223   -0.0078   -0.0004
    30 H3     *s         0.0760    0.0004   -0.0524   -0.0452    0.0257   -0.0313
    31 H3     *px       -0.0035    0.0069    0.0002   -0.0001    0.0002   -0.0005
    32 H3     *py        0.0039    0.0047    0.0019   -0.0007   -0.0004    0.0025
    33 H3     *pz        0.0090    0.0000   -0.0019   -0.0001    0.0000    0.0002
    34 H4     1s         0.0669    0.3476    0.0032    0.0116    0.0086   -0.0082
    35 H4     *s        -0.0128   -0.0682    0.0115   -0.0225   -0.0001    0.0247
    36 H4     *px       -0.0013   -0.0109   -0.0006   -0.0005   -0.0005    0.0005
    37 H4     *py       -0.0067    0.0017   -0.0020   -0.0004   -0.0009   -0.0007
    38 H4     *pz       -0.0043    0.0002    0.0008    0.0003    0.0005    0.0004
    39 O1     1s        -0.0000    0.0000    0.0018    0.0002    0.0013   -0.0001
    40 O1     2s        -0.0024    0.0003    0.0252    0.0029    0.0157   -0.0027
    41 O1     *s        -0.0022   -0.0005   -0.0077   -0.0011   -0.0100   -0.0004
    42 O1     2px       -0.0277   -0.0694    0.3701   -0.5108    0.3765    0.5178
    43 O1     *px        0.0066    0.0143    0.0182   -0.0276    0.0186    0.0205
    44 O1     2py        0.0561   -0.0504   -0.4326   -0.4337   -0.4397    0.4402
    45 O1     *py       -0.0119    0.0082   -0.0211   -0.0235   -0.0224    0.0177
    46 O1     2pz        0.0582    0.0212   -0.3436   -0.0026   -0.3523    0.0016
    47 O1     *pz       -0.0038   -0.0005   -0.0193    0.0003   -0.0141    0.0006
    48 O1     *d2-      -0.0026   -0.0014    0.0056   -0.0010    0.0053    0.0008
    49 O1     *d1-      -0.0029    0.0036    0.0014    0.0044    0.0028   -0.0048
    50 O1     *d0       -0.0066   -0.0013    0.0063    0.0001    0.0064    0.0000
    51 O1     *d1+       0.0010    0.0047   -0.0014    0.0052   -0.0025   -0.0057
    52 O1     *d2+      -0.0013    0.0050    0.0011    0.0056    0.0010   -0.0051
    53 O2     1s        -0.0005   -0.0000    0.0016    0.0000   -0.0016    0.0002
    54 O2     2s         0.0115    0.0017    0.0209    0.0017    0.0053    0.0001
    55 O2     *s         0.0102    0.0009   -0.0144   -0.0004    0.0171   -0.0023
    56 O2     2px       -0.0045   -0.0002    0.3697   -0.4849   -0.3226   -0.4975
    57 O2     *px        0.0009    0.0002    0.0138   -0.0220   -0.0109   -0.0197
    58 O2     2py        0.0064    0.0025   -0.3150   -0.4562    0.2482   -0.4555
    59 O2     *py       -0.0012    0.0001   -0.0102   -0.0202    0.0075   -0.0173
    60 O2     2pz        0.0158    0.0030    0.4606    0.0777   -0.5494    0.0865
    61 O2     *pz       -0.0014   -0.0001    0.0238    0.0035   -0.0225    0.0037
    62 O2     *d2-       0.0002    0.0000   -0.0058    0.0014    0.0044    0.0015
    63 O2     *d1-      -0.0001   -0.0000   -0.0014    0.0043    0.0028    0.0040
    64 O2     *d0       -0.0002   -0.0000   -0.0096   -0.0015    0.0092   -0.0015
    65 O2     *d1+       0.0001    0.0000   -0.0005    0.0059   -0.0007    0.0059
    66 O2     *d2+       0.0000   -0.0000   -0.0003   -0.0078   -0.0000   -0.0078
    67 H7     1s        -0.0105   -0.0019    0.0089    0.0006    0.0173   -0.0009
    68 H7     *s        -0.0042    0.0007    0.0037   -0.0007   -0.0466    0.0044
    69 H7     *px        0.0006    0.0003    0.0090   -0.0175   -0.0112   -0.0136
    70 H7     *py       -0.0007   -0.0000   -0.0059   -0.0154    0.0098   -0.0130
    71 H7     *pz        0.0007    0.0000    0.0211    0.0032   -0.0126    0.0023
    72 C8     1s         0.0001    0.0000    0.0014    0.0001    0.0001   -0.0000
    73 C8     2s        -0.0893   -0.0122   -0.0582   -0.0026   -0.0669    0.0032
    74 C8     *s        -0.0299   -0.0052   -0.0439   -0.0021    0.0015   -0.0010
    75 C8     2px        0.2162    0.2429    0.0189    0.0090    0.0199   -0.0091
    76 C8     *px       -0.0242   -0.0234    0.0039    0.0052    0.0002   -0.0055
    77 C8     2py       -0.3416    0.1177   -0.0286    0.0054   -0.0300   -0.0051
    78 C8     *py        0.0373   -0.0106   -0.0054    0.0038    0.0007   -0.0043
    79 C8     2pz       -0.2223   -0.0352   -0.0951   -0.0048   -0.0964    0.0048
    80 C8     *pz        0.0275    0.0037    0.0060    0.0001    0.0262   -0.0015
    81 C8     *d2-       0.0100   -0.0039   -0.0012    0.0003   -0.0019   -0.0004
    82 C8     *d1-      -0.0081   -0.0057   -0.0036    0.0005   -0.0023   -0.0010
    83 C8     *d0       -0.0174   -0.0023   -0.0023   -0.0001   -0.0017    0.0001
    84 C8     *d1+       0.0063   -0.0063    0.0026    0.0010    0.0016   -0.0015
    85 C8     *d2+      -0.0005    0.0218   -0.0000   -0.0013   -0.0002    0.0019
    86 H9     1s         0.2540   -0.2216   -0.0086    0.0021   -0.0100   -0.0021
    87 H9     *s        -0.0500    0.0417    0.0160    0.0157    0.0163   -0.0159
    88 H9     *px        0.0070    0.0034    0.0001   -0.0001   -0.0001   -0.0000
    89 H9     *py        0.0062   -0.0077   -0.0007    0.0006   -0.0009   -0.0003
    90 H9     *pz       -0.0037   -0.0017   -0.0003    0.0017   -0.0006   -0.0013
    91 H10    1s         0.1837    0.2874   -0.0075   -0.0031   -0.0090    0.0030
    92 H10    *s        -0.0368   -0.0544    0.0173   -0.0142    0.0174    0.0146
    93 H10    *px       -0.0056   -0.0087    0.0005    0.0006    0.0008   -0.0003
    94 H10    *py       -0.0067    0.0033   -0.0002   -0.0003   -0.0001    0.0001
    95 H10    *pz       -0.0035    0.0011   -0.0002   -0.0017   -0.0006    0.0014
    96 H11    1s        -0.0792   -0.0172    0.0515    0.0028    0.0498   -0.0023
    97 H11    *s         0.0256    0.0047    0.0001    0.0000    0.0047   -0.0003
    98 H11    *px        0.0027    0.0047    0.0018    0.0001    0.0018   -0.0002
    99 H11    *py       -0.0050    0.0028   -0.0023   -0.0001   -0.0023   -0.0000
   100 H11    *pz       -0.0071   -0.0014   -0.0005   -0.0000   -0.0005    0.0001
   101 C12    1s         0.0003   -0.0002   -0.0016    0.0005    0.0010   -0.0002
   102 C12    2s         0.0335    0.0825    0.0394   -0.0608    0.0357    0.0554
   103 C12    *s         0.0047    0.0273    0.0358   -0.0203   -0.0192    0.0178
   104 C12    2px        0.1677    0.3817    0.0576   -0.0887    0.0613    0.0915
   105 C12    *px       -0.0193   -0.0454   -0.0145    0.0283    0.0068    0.0050
   106 C12    2py       -0.1866    0.2075    0.0110    0.0116   -0.0009   -0.0152
   107 C12    *py        0.0162   -0.0208    0.0194   -0.0104   -0.0084   -0.0073
   108 C12    2pz       -0.1918   -0.1157    0.0313   -0.0240    0.0044    0.0100
   109 C12    *pz        0.0145    0.0114    0.0060    0.0091   -0.0173   -0.0162
   110 C12    *d2-       0.0149   -0.0062    0.0020    0.0008    0.0019   -0.0005
   111 C12    *d1-      -0.0095   -0.0028    0.0017   -0.0024    0.0002    0.0019
   112 C12    *d0       -0.0125   -0.0019   -0.0016    0.0015   -0.0037   -0.0038
   113 C12    *d1+       0.0097   -0.0006    0.0007    0.0010   -0.0005   -0.0007
   114 C12    *d2+       0.0006    0.0216    0.0009   -0.0019    0.0017    0.0033
   115 H13    1s         0.1680   -0.3100    0.0039   -0.0126    0.0091    0.0098
   116 H13    *s        -0.0332    0.0615    0.0095    0.0235   -0.0025   -0.0248
   117 H13    *px        0.0065    0.0014    0.0022   -0.0002    0.0010   -0.0006
   118 H13    *py        0.0030   -0.0106    0.0002   -0.0005    0.0003    0.0007
   119 H13    *pz       -0.0045   -0.0011    0.0007   -0.0000    0.0004   -0.0004
   120 H14    1s         0.0221    0.0574   -0.0416    0.0550   -0.0242   -0.0445
   121 H14    *s        -0.0099   -0.0223    0.0003    0.0055   -0.0031   -0.0024
   122 H14    *px        0.0036    0.0083    0.0011   -0.0019    0.0014    0.0018
   123 H14    *py       -0.0043    0.0030    0.0009   -0.0010    0.0006    0.0008
   124 H14    *pz       -0.0028    0.0002   -0.0014    0.0022   -0.0001   -0.0013
   125 H15    1s        -0.3298   -0.0932    0.0199   -0.0192   -0.0059    0.0034
   126 H15    *s         0.0737    0.0205   -0.0591    0.0371    0.0288    0.0237
   127 H15    *px       -0.0042    0.0052   -0.0021   -0.0010    0.0005    0.0022
   128 H15    *py        0.0028    0.0067    0.0002    0.0000   -0.0004   -0.0010
   129 H15    *pz        0.0090    0.0022   -0.0016   -0.0003   -0.0004   -0.0005
   130 H16    1s         0.0409   -0.0593   -0.0356   -0.0579   -0.0192    0.0429
   131 H16    *s        -0.0162    0.0201    0.0007   -0.0057   -0.0026    0.0020
   132 H16    *px        0.0018    0.0054   -0.0010   -0.0017   -0.0008    0.0013
   133 H16    *py       -0.0065    0.0060   -0.0007   -0.0018   -0.0011    0.0017
   134 H16    *pz       -0.0023   -0.0017   -0.0011   -0.0023    0.0001    0.0011
--
 
      Von Neumann Entropy (Root   1) =  0.99984
 

      Mulliken population analysis for root number:  1
      -----------------------------------------------
 
 
++    Molecular charges:
      ------------------
 
      Mulliken charges per centre and basis function type
      ---------------------------------------------------
 
                C1      C2      H3      H4      O1      O2      H7      C8      H9      H10     H11     C12   
      1s       2.0042  2.0039  1.2560  1.2628  2.0016  2.0008  1.0281  2.0039  1.2625  1.2625  1.2650  2.0039
      2s       1.3920  1.4472  0.0000  0.0000  1.8774  1.9006  0.0000  1.4511  0.0000  0.0000  0.0000  1.4465
      2px      1.0691  1.1668  0.0000  0.0000  1.2027  1.2423  0.0000  1.1650  0.0000  0.0000  0.0000  1.0797
      2pz      0.9059  1.1779  0.0000  0.0000  1.5734  1.7380  0.0000  1.1247  0.0000  0.0000  0.0000  1.1768
      2py      1.0536  1.0912  0.0000  0.0000  1.5555  1.3922  0.0000  1.1555  0.0000  0.0000  0.0000  1.1747
      *s      -0.1811 -0.4387 -0.3342 -0.3348  0.0217 -0.0613 -0.3141 -0.4467 -0.3343 -0.3343 -0.3317 -0.4378
      *px     -0.0735 -0.1757  0.0070  0.0211  0.0132  0.0101  0.0202 -0.1756  0.0062  0.0212  0.0071 -0.1867
      *pz     -0.0927 -0.1783  0.0162  0.0054  0.0049 -0.0023  0.0363 -0.1942  0.0046  0.0047  0.0166 -0.1788
      *py     -0.0722 -0.1862  0.0080  0.0043  0.0260 -0.0105  0.0273 -0.1770  0.0201  0.0050  0.0074 -0.1759
      *d2+     0.0329  0.0178  0.0000  0.0000  0.0008  0.0003  0.0000  0.0171  0.0000  0.0000  0.0000  0.0171
      *d1+     0.0305  0.0055  0.0000  0.0000  0.0025  0.0017  0.0000  0.0087  0.0000  0.0000  0.0000  0.0095
      *d0      0.0429  0.0122  0.0000  0.0000  0.0029  0.0007  0.0000  0.0137  0.0000  0.0000  0.0000  0.0120
      *d1-     0.0376  0.0124  0.0000  0.0000  0.0032  0.0029  0.0000  0.0121  0.0000  0.0000  0.0000  0.0086
      *d2-     0.0249  0.0086  0.0000  0.0000  0.0009  0.0015  0.0000  0.0053  0.0000  0.0000  0.0000  0.0090
      Total    6.1742  5.9644  0.9529  0.9589  8.2865  8.2171  0.7978  5.9634  0.9591  0.9591  0.9644  5.9588
 
      N-E     -0.1742  0.0356  0.0471  0.0411 -0.2865 -0.2171  0.2022  0.0366  0.0409  0.0409  0.0356  0.0412
 
                H13     H14     H15     H16   
      1s       1.2630  1.2646  1.2566  1.2646
      2s       0.0000  0.0000  0.0000  0.0000
      2px      0.0000  0.0000  0.0000  0.0000
      2pz      0.0000  0.0000  0.0000  0.0000
      2py      0.0000  0.0000  0.0000  0.0000
      *s      -0.3350 -0.3291 -0.3347 -0.3300
      *px      0.0055  0.0075  0.0061  0.0070
      *pz      0.0054  0.0153  0.0163  0.0156
      *py      0.0199  0.0080  0.0088  0.0083
      *d2+     0.0000  0.0000  0.0000  0.0000
      *d1+     0.0000  0.0000  0.0000  0.0000
      *d0      0.0000  0.0000  0.0000  0.0000
      *d1-     0.0000  0.0000  0.0000  0.0000
      *d2-     0.0000  0.0000  0.0000  0.0000
      Total    0.9588  0.9663  0.9530  0.9655
 
      N-E      0.0412  0.0337  0.0470  0.0345
 
      Total electronic charge=   50.000000
 
      Total            charge=   -0.000000
--
 
 

      Expectation values of various properties for root number:  1
      -----------------------------------------------------------
 
 
++    Molecular properties:
      ---------------------
 
      Charge (e):
                      =   -0.0000
      Dipole Moment (Debye):
      Origin of the operator (Ang)=    0.0000    0.0000    0.0000
                   X=  3.3590E-02               Y= -2.2861E-01               Z= -3.2766E+00           Total=  3.2847E+00
      Quadrupole Moment (Debye*Ang):
      Origin of the operator (Ang)=   -0.0235    0.1479    0.1802
                  XX= -3.7531E+01              XY=  1.9134E+00              XZ=  1.3994E+00              YY= -3.9029E+01
                  YZ= -2.3924E+00              ZZ= -4.5167E+01
      In traceless form (Debye*Ang)
                  XX=  4.5672E+00              XY=  2.8700E+00              XZ=  2.0991E+00              YY=  2.3199E+00
                  YZ= -3.5886E+00              ZZ= -6.8871E+00
--
 
      Von Neumann Entropy (Root   2) =  0.99999
 

      Mulliken population analysis for root number:  2
[...]
   112 C12    *d0       -0.0127   -0.0001   -0.0014    0.0014   -0.0037   -0.0039
   113 C12    *d1+       0.0095   -0.0018    0.0007    0.0009   -0.0001   -0.0006
   114 C12    *d2+       0.0041    0.0210    0.0009   -0.0019    0.0014    0.0033
   115 H13    1s         0.1189   -0.3300    0.0041   -0.0117    0.0085    0.0098
   116 H13    *s        -0.0229    0.0651    0.0105    0.0227   -0.0010   -0.0255
   117 H13    *px        0.0066    0.0003    0.0021   -0.0003    0.0011   -0.0005
   118 H13    *py        0.0013   -0.0109    0.0002   -0.0005    0.0002    0.0007
   119 H13    *pz       -0.0046   -0.0005    0.0006    0.0000    0.0007   -0.0003
   120 H14    1s         0.0310    0.0582   -0.0373    0.0554   -0.0238   -0.0451
   121 H14    *s        -0.0130   -0.0212    0.0006    0.0048   -0.0041   -0.0034
   122 H14    *px        0.0047    0.0078    0.0011   -0.0020    0.0012    0.0018
   123 H14    *py       -0.0038    0.0034    0.0008   -0.0010    0.0007    0.0009
   124 H14    *pz       -0.0027    0.0006   -0.0013    0.0023   -0.0001   -0.0013
   125 H15    1s        -0.3370   -0.0477    0.0164   -0.0188   -0.0035    0.0039
   126 H15    *s         0.0731    0.0104   -0.0554    0.0404    0.0272    0.0261
   127 H15    *px       -0.0033    0.0058   -0.0018   -0.0009    0.0002    0.0023
   128 H15    *py        0.0037    0.0062    0.0005   -0.0000   -0.0008   -0.0011
   129 H15    *pz        0.0090    0.0009   -0.0009   -0.0005   -0.0011   -0.0008
   130 H16    1s         0.0317   -0.0582   -0.0372   -0.0555   -0.0237    0.0451
   131 H16    *s        -0.0132    0.0212    0.0006   -0.0049   -0.0041    0.0034
   132 H16    *px        0.0024    0.0051   -0.0011   -0.0016   -0.0010    0.0014
   133 H16    *py       -0.0056    0.0067   -0.0009   -0.0018   -0.0009    0.0016
   134 H16    *pz       -0.0026   -0.0012   -0.0013   -0.0022    0.0000    0.0011
--
 
      Von Neumann Entropy (Root   1) =  0.99993
 

      Mulliken population analysis for root number:  1
      -----------------------------------------------
 
 
++    Molecular charges:
      ------------------
 
      Mulliken charges per centre and basis function type
      ---------------------------------------------------
 
                C1      C2      H3      H4      O1      O2      H7      C8      H9      H10     H11     C12   
      1s       2.0042  2.0039  1.2589  1.2626  2.0015  2.0007  1.0391  2.0039  1.2625  1.2625  1.2653  2.0039
      2s       1.3913  1.4470  0.0000  0.0000  1.8794  1.9027  0.0000  1.4511  0.0000  0.0000  0.0000  1.4470
      2px      1.0675  1.1661  0.0000  0.0000  1.2719  1.2463  0.0000  1.1656  0.0000  0.0000  0.0000  1.0829
      2pz      0.9121  1.1758  0.0000  0.0000  1.5823  1.7043  0.0000  1.1239  0.0000  0.0000  0.0000  1.1753
      2py      1.0503  1.0911  0.0000  0.0000  1.4756  1.4165  0.0000  1.1558  0.0000  0.0000  0.0000  1.1747
      *s      -0.1816 -0.4386 -0.3331 -0.3351  0.0194 -0.0609 -0.3176 -0.4464 -0.3342 -0.3342 -0.3314 -0.4386
      *px     -0.0734 -0.1757  0.0068  0.0212  0.0147  0.0138  0.0191 -0.1754  0.0063  0.0212  0.0071 -0.1870
      *pz     -0.0924 -0.1793  0.0162  0.0054  0.0060 -0.0163  0.0370 -0.1942  0.0046  0.0047  0.0164 -0.1789
      *py     -0.0731 -0.1863  0.0080  0.0043  0.0210 -0.0046  0.0258 -0.1764  0.0200  0.0050  0.0075 -0.1754
      *d2+     0.0327  0.0176  0.0000  0.0000  0.0008  0.0003  0.0000  0.0169  0.0000  0.0000  0.0000  0.0170
      *d1+     0.0308  0.0054  0.0000  0.0000  0.0026  0.0017  0.0000  0.0086  0.0000  0.0000  0.0000  0.0095
      *d0      0.0433  0.0121  0.0000  0.0000  0.0029  0.0010  0.0000  0.0138  0.0000  0.0000  0.0000  0.0120
      *d1-     0.0373  0.0127  0.0000  0.0000  0.0032  0.0030  0.0000  0.0122  0.0000  0.0000  0.0000  0.0088
      *d2-     0.0253  0.0087  0.0000  0.0000  0.0009  0.0012  0.0000  0.0053  0.0000  0.0000  0.0000  0.0092
      Total    6.1743  5.9605  0.9568  0.9583  8.2821  8.2097  0.8034  5.9646  0.9592  0.9592  0.9649  5.9604
 
      N-E     -0.1743  0.0395  0.0432  0.0417 -0.2821 -0.2097  0.1966  0.0354  0.0408  0.0408  0.0351  0.0396
 
                H13     H14     H15     H16   
      1s       1.2626  1.2644  1.2589  1.2644
      2s       0.0000  0.0000  0.0000  0.0000
      2px      0.0000  0.0000  0.0000  0.0000
      2pz      0.0000  0.0000  0.0000  0.0000
      2py      0.0000  0.0000  0.0000  0.0000
      *s      -0.3351 -0.3296 -0.3331 -0.3296
      *px      0.0056  0.0076  0.0060  0.0070
      *pz      0.0054  0.0152  0.0162  0.0154
      *py      0.0198  0.0081  0.0088  0.0085
      *d2+     0.0000  0.0000  0.0000  0.0000
      *d1+     0.0000  0.0000  0.0000  0.0000
      *d0      0.0000  0.0000  0.0000  0.0000
      *d1-     0.0000  0.0000  0.0000  0.0000
      *d2-     0.0000  0.0000  0.0000  0.0000
      Total    0.9583  0.9657  0.9568  0.9657
 
      N-E      0.0417  0.0343  0.0432  0.0343
 
      Total electronic charge=   50.000000
 
      Total            charge=   -0.000000
--
 
 

      Expectation values of various properties for root number:  1
      -----------------------------------------------------------
 
 
++    Molecular properties:
      ---------------------
 
      Charge (e):
                      =   -0.0000
      Dipole Moment (Debye):
      Origin of the operator (Ang)=    0.0000    0.0000    0.0000
                   X= -2.4767E-02               Y= -1.4367E-01               Z= -3.2984E+00           Total=  3.3016E+00
      Quadrupole Moment (Debye*Ang):
      Origin of the operator (Ang)=   -0.0247    0.1443    0.1924
                  XX= -3.7795E+01              XY=  2.0746E+00              XZ=  1.4578E+00              YY= -3.9029E+01
                  YZ= -2.3677E+00              ZZ= -4.5598E+01
      In traceless form (Debye*Ang)
                  XX=  4.5185E+00              XY=  3.1119E+00              XZ=  2.1867E+00              YY=  2.6678E+00
                  YZ= -3.5515E+00              ZZ= -7.1863E+00
--
 
      Von Neumann Entropy (Root   2) =  1.00010
 

      Mulliken population analysis for root number:  2
      -----------------------------------------------
 
 
++    Molecular charges:
      ------------------
 
      Mulliken charges per centre and basis function type
      ---------------------------------------------------
 
                C1      C2      H3      H4      O1      O2      H7      C8      H9      H10     H11     C12   
      1s       2.0042  2.0039  1.2590  1.2626  2.0015  2.0007  1.0391  2.0039  1.2625  1.2625  1.2653  2.0039
      2s       1.3914  1.4470  0.0000  0.0000  1.8794  1.9026  0.0000  1.4511  0.0000  0.0000  0.0000  1.4470
      2px      1.0675  1.1661  0.0000  0.0000  1.2719  1.6430  0.0000  1.1656  0.0000  0.0000  0.0000  1.0829
      2pz      0.9122  1.1758  0.0000  0.0000  1.5823  1.2317  0.0000  1.1239  0.0000  0.0000  0.0000  1.1753
      2py      1.0503  1.0911  0.0000  0.0000  1.4756  1.4946  0.0000  1.1558  0.0000  0.0000  0.0000  1.1747
      *s      -0.1815 -0.4385 -0.3345 -0.3351  0.0194 -0.0609 -0.3177 -0.4465 -0.3342 -0.3342 -0.3315 -0.4385
      *px     -0.0734 -0.1757  0.0069  0.0212  0.0147  0.0280  0.0236 -0.1754  0.0063  0.0212  0.0071 -0.1871
      *pz     -0.0927 -0.1792  0.0162  0.0054  0.0060 -0.0339  0.0314 -0.1942  0.0046  0.0047  0.0164 -0.1788
      *py     -0.0732 -0.1864  0.0080  0.0043  0.0210 -0.0005  0.0268 -0.1764  0.0200  0.0050  0.0075 -0.1753
      *d2+     0.0327  0.0176  0.0000  0.0000  0.0008  0.0004  0.0000  0.0169  0.0000  0.0000  0.0000  0.0170
      *d1+     0.0308  0.0054  0.0000  0.0000  0.0026  0.0018  0.0000  0.0086  0.0000  0.0000  0.0000  0.0095
      *d0      0.0433  0.0121  0.0000  0.0000  0.0029  0.0007  0.0000  0.0138  0.0000  0.0000  0.0000  0.0120
      *d1-     0.0372  0.0127  0.0000  0.0000  0.0032  0.0031  0.0000  0.0122  0.0000  0.0000  0.0000  0.0088
      *d2-     0.0253  0.0087  0.0000  0.0000  0.0009  0.0011  0.0000  0.0053  0.0000  0.0000  0.0000  0.0092
      Total    6.1739  5.9606  0.9555  0.9583  8.2821  8.2127  0.8033  5.9646  0.9592  0.9592  0.9649  5.9605
 
      N-E     -0.1739  0.0394  0.0445  0.0417 -0.2821 -0.2127  0.1967  0.0354  0.0408  0.0408  0.0351  0.0395
 
                H13     H14     H15     H16   
      1s       1.2626  1.2644  1.2590  1.2644
      2s       0.0000  0.0000  0.0000  0.0000
      2px      0.0000  0.0000  0.0000  0.0000
      2pz      0.0000  0.0000  0.0000  0.0000
      2py      0.0000  0.0000  0.0000  0.0000
      *s      -0.3351 -0.3295 -0.3345 -0.3296
      *px      0.0056  0.0076  0.0060  0.0070
      *pz      0.0054  0.0152  0.0162  0.0154
      *py      0.0198  0.0081  0.0088  0.0085
      *d2+     0.0000  0.0000  0.0000  0.0000
      *d1+     0.0000  0.0000  0.0000  0.0000
      *d0      0.0000  0.0000  0.0000  0.0000
      *d1-     0.0000  0.0000  0.0000  0.0000
      *d2-     0.0000  0.0000  0.0000  0.0000
      Total    0.9583  0.9657  0.9555  0.9657
 
      N-E      0.0417  0.0343  0.0445  0.0343
 
      Total electronic charge=   50.000000
 
      Total            charge=   -0.000000
--
 
 

      Expectation values of various properties for root number:  2
      -----------------------------------------------------------
 
 
++    Molecular properties:
      ---------------------
 
      Charge (e):
                      =   -0.0000
      Dipole Moment (Debye):
      Origin of the operator (Ang)=    0.0000    0.0000    0.0000
                   X= -1.9698E-02               Y= -1.5084E-01               Z= -3.3102E+00           Total=  3.3137E+00
      Quadrupole Moment (Debye*Ang):
      Origin of the operator (Ang)=   -0.0247    0.1443    0.1924
                  XX= -3.8235E+01              XY=  1.2846E+00              XZ=  1.8569E+00              YY= -3.9111E+01
                  YZ= -2.7956E+00              ZZ= -4.5081E+01
      In traceless form (Debye*Ang)
                  XX=  3.8611E+00              XY=  1.9269E+00              XZ=  2.7854E+00              YY=  2.5467E+00
                  YZ= -4.1934E+00              ZZ= -6.4078E+00
--
 
      Von Neumann Entropy (Root   3) =  1.00009
 

      Mulliken population analysis for root number:  3
      -----------------------------------------------
 
 
++    Molecular charges:
      ------------------
 
      Mulliken charges per centre and basis function type
      ---------------------------------------------------
 
                C1      C2      H3      H4      O1      O2      H7      C8      H9      H10     H11     C12   
      1s       2.0042  2.0039  1.2588  1.2623  2.0015  2.0007  1.0402  2.0039  1.2628  1.2627  1.2619  2.0039
      2s       1.3914  1.4483  0.0000  0.0000  1.8790  1.9027  0.0000  1.4488  0.0000  0.0000  0.0000  1.4483
      2px      1.0666  1.1658  0.0000  0.0000  1.6101  1.2457  0.0000  1.1647  0.0000  0.0000  0.0000  1.0896
      2pz      0.9132  1.1755  0.0000  0.0000  1.3259  1.7023  0.0000  1.1147  0.0000  0.0000  0.0000  1.1751
      2py      1.0503  1.0978  0.0000  0.0000  1.4000  1.4162  0.0000  1.1538  0.0000  0.0000  0.0000  1.1745
      *s      -0.1816 -0.4389 -0.3335 -0.3333  0.0196 -0.0608 -0.3226 -0.4460 -0.3349 -0.3348 -0.3316 -0.4389
      *px     -0.0728 -0.1758  0.0069  0.0212  0.0265  0.0138  0.0191 -0.1756  0.0063  0.0212  0.0071 -0.1871
      *pz     -0.0923 -0.1787  0.0162  0.0054 -0.0034 -0.0163  0.0366 -0.1949  0.0046  0.0047  0.0163 -0.1783
      *py     -0.0736 -0.1863  0.0080  0.0042  0.0175 -0.0046  0.0257 -0.1766  0.0200  0.0050  0.0075 -0.1754
      *d2+     0.0390  0.0176  0.0000  0.0000  0.0008  0.0003  0.0000  0.0169  0.0000  0.0000  0.0000  0.0170
      *d1+     0.0330  0.0054  0.0000  0.0000  0.0026  0.0017  0.0000  0.0085  0.0000  0.0000  0.0000  0.0096
      *d0      0.0343  0.0121  0.0000  0.0000  0.0028  0.0010  0.0000  0.0139  0.0000  0.0000  0.0000  0.0119
      *d1-     0.0378  0.0128  0.0000  0.0000  0.0032  0.0030  0.0000  0.0121  0.0000  0.0000  0.0000  0.0089
      *d2-     0.0249  0.0086  0.0000  0.0000  0.0009  0.0012  0.0000  0.0053  0.0000  0.0000  0.0000  0.0091
      Total    6.1743  5.9681  0.9564  0.9598  8.2870  8.2069  0.7990  5.9495  0.9588  0.9588  0.9612  5.9682
 
      N-E     -0.1743  0.0319  0.0436  0.0402 -0.2870 -0.2069  0.2010  0.0505  0.0412  0.0412  0.0388  0.0318
 
                H13     H14     H15     H16   
      1s       1.2623  1.2665  1.2589  1.2664
      2s       0.0000  0.0000  0.0000  0.0000
      2px      0.0000  0.0000  0.0000  0.0000
      2pz      0.0000  0.0000  0.0000  0.0000
      2py      0.0000  0.0000  0.0000  0.0000
      *s      -0.3333 -0.3294 -0.3335 -0.3294
      *px      0.0055  0.0076  0.0061  0.0070
      *pz      0.0054  0.0152  0.0162  0.0154
      *py      0.0198  0.0081  0.0088  0.0086
      *d2+     0.0000  0.0000  0.0000  0.0000
      *d1+     0.0000  0.0000  0.0000  0.0000
      *d0      0.0000  0.0000  0.0000  0.0000
      *d1-     0.0000  0.0000  0.0000  0.0000
      *d2-     0.0000  0.0000  0.0000  0.0000
      Total    0.9598  0.9680  0.9564  0.9679
 
      N-E      0.0402  0.0320  0.0436  0.0321
 
      Total electronic charge=   50.000000
 
      Total            charge=   -0.000000
--
 
 

      Expectation values of various properties for root number:  3
      -----------------------------------------------------------
 
 
++    Molecular properties:
      ---------------------
 
      Charge (e):
                      =   -0.0000
      Dipole Moment (Debye):
      Origin of the operator (Ang)=    0.0000    0.0000    0.0000
                   X=  8.0779E-02               Y= -2.8056E-01               Z= -3.3681E+00           Total=  3.3807E+00
      Quadrupole Moment (Debye*Ang):
      Origin of the operator (Ang)=   -0.0247    0.1443    0.1924
                  XX= -3.8272E+01              XY=  1.1435E+00              XZ=  1.0352E+00              YY= -3.8977E+01
                  YZ= -1.7184E+00              ZZ= -4.4761E+01
      In traceless form (Debye*Ang)
                  XX=  3.5971E+00              XY=  1.7152E+00              XZ=  1.5527E+00              YY=  2.5394E+00
                  YZ= -2.5776E+00              ZZ= -6.1365E+00
--
 
      Von Neumann Entropy (Root   4) =  0.99941
 

      Mulliken population analysis for root number:  4
      -----------------------------------------------
 
 
++    Molecular charges:
      ------------------
 
      Mulliken charges per centre and basis function type
      ---------------------------------------------------
 
                C1      C2      H3      H4      O1      O2      H7      C8      H9      H10     H11     C12   
      1s       2.0042  2.0039  1.2590  1.2623  2.0015  2.0007  1.0402  2.0039  1.2628  1.2627  1.2619  2.0039
      2s       1.3914  1.4483  0.0000  0.0000  1.8790  1.9026  0.0000  1.4488  0.0000  0.0000  0.0000  1.4483
      2px      1.0666  1.1658  0.0000  0.0000  1.6100  1.6433  0.0000  1.1647  0.0000  0.0000  0.0000  1.0896
      2pz      0.9132  1.1755  0.0000  0.0000  1.3259  1.2288  0.0000  1.1147  0.0000  0.0000  0.0000  1.1750
      2py      1.0503  1.0977  0.0000  0.0000  1.4000  1.4942  0.0000  1.1538  0.0000  0.0000  0.0000  1.1745
      *s      -0.1816 -0.4388 -0.3349 -0.3333  0.0196 -0.0608 -0.3228 -0.4461 -0.3349 -0.3348 -0.3316 -0.4388
      *px     -0.0729 -0.1758  0.0069  0.0212  0.0265  0.0280  0.0236 -0.1756  0.0063  0.0212  0.0071 -0.1871
      *pz     -0.0926 -0.1786  0.0162  0.0054 -0.0034 -0.0339  0.0310 -0.1949  0.0046  0.0047  0.0163 -0.1782
      *py     -0.0737 -0.1863  0.0080  0.0042  0.0175 -0.0005  0.0268 -0.1766  0.0200  0.0050  0.0075 -0.1753
      *d2+     0.0390  0.0176  0.0000  0.0000  0.0008  0.0004  0.0000  0.0169  0.0000  0.0000  0.0000  0.0170
      *d1+     0.0330  0.0054  0.0000  0.0000  0.0026  0.0018  0.0000  0.0085  0.0000  0.0000  0.0000  0.0096
      *d0      0.0343  0.0121  0.0000  0.0000  0.0028  0.0007  0.0000  0.0139  0.0000  0.0000  0.0000  0.0119
      *d1-     0.0378  0.0128  0.0000  0.0000  0.0032  0.0031  0.0000  0.0121  0.0000  0.0000  0.0000  0.0089
      *d2-     0.0249  0.0086  0.0000  0.0000  0.0009  0.0011  0.0000  0.0053  0.0000  0.0000  0.0000  0.0091
      Total    6.1739  5.9682  0.9551  0.9598  8.2870  8.2097  0.7989  5.9495  0.9588  0.9588  0.9612  5.9683
 
      N-E     -0.1739  0.0318  0.0449  0.0402 -0.2870 -0.2097  0.2011  0.0505  0.0412  0.0412  0.0388  0.0317
 
                H13     H14     H15     H16   
      1s       1.2623  1.2665  1.2590  1.2664
      2s       0.0000  0.0000  0.0000  0.0000
      2px      0.0000  0.0000  0.0000  0.0000
      2pz      0.0000  0.0000  0.0000  0.0000
      2py      0.0000  0.0000  0.0000  0.0000
      *s      -0.3333 -0.3294 -0.3349 -0.3294
      *px      0.0055  0.0076  0.0061  0.0070
      *pz      0.0054  0.0152  0.0162  0.0154
      *py      0.0198  0.0081  0.0088  0.0086
      *d2+     0.0000  0.0000  0.0000  0.0000
      *d1+     0.0000  0.0000  0.0000  0.0000
      *d0      0.0000  0.0000  0.0000  0.0000
      *d1-     0.0000  0.0000  0.0000  0.0000
      *d2-     0.0000  0.0000  0.0000  0.0000
      Total    0.9598  0.9680  0.9552  0.9679
 
      N-E      0.0402  0.0320  0.0448  0.0321
 
      Total electronic charge=   50.000000
 
      Total            charge=   -0.000000
--
 
 

      Expectation values of various properties for root number:  4
      -----------------------------------------------------------
 
 
++    Molecular properties:
      ---------------------
 
      Charge (e):
                      =   -0.0000
      Dipole Moment (Debye):
      Origin of the operator (Ang)=    0.0000    0.0000    0.0000
                   X=  8.6450E-02               Y= -2.8846E-01               Z= -3.3792E+00           Total=  3.3926E+00
      Quadrupole Moment (Debye*Ang):
      Origin of the operator (Ang)=   -0.0247    0.1443    0.1924
                  XX= -3.8713E+01              XY=  3.5349E-01              XZ=  1.4335E+00              YY= -3.9059E+01
                  YZ= -2.1463E+00              ZZ= -4.4238E+01
      In traceless form (Debye*Ang)
                  XX=  2.9357E+00              XY=  5.3023E-01              XZ=  2.1502E+00              YY=  2.4168E+00
                  YZ= -3.2194E+00              ZZ= -5.3524E+00
--
 
 
      Input file to MOLDEN was generated!
 
 
      Input file to MOLDEN was generated!
 
 
      Input file to MOLDEN was generated!
 
 
      Input file to MOLDEN was generated!
 
 
      Input file to MOLDEN was generated!
 
      Average orbitals are written to the RASORB file
      Natural orbitals for root   1 are written to the RASORB.1 file
      Natural orbitals for root   2 are written to the RASORB.2 file
      Natural orbitals for root   3 are written to the RASORB.3 file
      Natural orbitals for root   4 are written to the RASORB.4 file
      Spin density orbitals for root   1 are written to the SPDORB.1 file
      Spin density orbitals for root   2 are written to the SPDORB.2 file
      Spin density orbitals for root   3 are written to the SPDORB.3 file
      Spin density orbitals for root   4 are written to the SPDORB.4 file
 
--- Stop Module: last_energy at Thu Jul  9 12:33:03 2026 /rc=_RC_ALL_IS_WELL_ ---
*** files: relaxed_scan_tbhp_casscf.rasscf.molden relaxed_scan_tbhp_casscf.rasscf.molden.1 relaxed_scan_tbhp_casscf.rasscf.molden.2 relaxed_scan_tbhp_casscf.rasscf.molden.3
           relaxed_scan_tbhp_casscf.rasscf.molden.4 relaxed_scan_tbhp_casscf.RasOrb relaxed_scan_tbhp_casscf.RasOrb.1 relaxed_scan_tbhp_casscf.RasOrb.2
           relaxed_scan_tbhp_casscf.RasOrb.3 relaxed_scan_tbhp_casscf.RasOrb.4 relaxed_scan_tbhp_casscf.SpdOrb.1 relaxed_scan_tbhp_casscf.SpdOrb.2 relaxed_scan_tbhp_casscf.SpdOrb.3
           relaxed_scan_tbhp_casscf.SpdOrb.4 xmldump
    saved to directory /vscratch/grp-cyberwksp21/hclifford/openmolcas/PES/runs_relaxed_s1/R_3p00
--- Module last_energy spent 25 seconds ---

>>> END DO

.##################.
.# Happy landing! #.
.##################.

    Timing: Wall=1442.02 User=1067.32 System=247.25
