   This run of MOLCAS is using the pymolcas driver

                             OPE
                             OPE          NMOL  CASOP  ENMOLC A   SO
                 OPE        NMOLC        AS  OP EN  MO LC     AS  OP
                OPENM       OL CA        SO  PE NM  OL CA     SOP EN
                OP EN      MO   LC       AS  OP ENMOL  CASO   PENMOL
                OP  EN     MO   LC       AS  OP EN     MO     LC ASO
               OP   E  NMOL  C  AS       OP  EN MO     LC     AS  OP
               OP  E   NMO   LC AS        OPEN  MO     LCASOP EN   M
               O  PEN   MO  LCA  SO
            OPE   NMO   L   CAS    OP
        OPENMOL  CASOP     ENMOL   CASOPE
     OPENMOLCA   SOPENMOLCASOPEN   MOLCASOPE
    OPENMOLCAS   OP           EN   MOL    CAS
    OPENMOLCAS       OP  ENM        O     LCA
    OPENMOLCAS    OPEN  MOLCASO     P  E  NMO
    OPENMOLCAS     OP               E  N  MOL
    OPENMOLCA   SO           PENM   O  L  CAS    OPEN    MO    LCAS
    OPENMOLCA   SOP           ENM   O  L  CAS   OP  EN  MOLC  AS   O
    OPENMOLCA   SOPE           NM      O  LCA   S      OP  EN MO
    OPENMOLC                AS         O  PEN   M      OL  CA  SOPE
    OPENMO        LCASOPE  NMOL        C  ASO   P      ENMOLC     AS
    OPE     NMO      LCA  SO     P     E   NM   OL  CA SO  PE N   MO
          OPENMOLCA            SOPE   NMO        LCAS  O    P  ENMO
     OPENMOLCASOPENMOLCASOPENMOLCASOPENMOLCA
        OPENMOLCASOPENMOLCASOPENMOLCASOPE
            OPENMOLCASOPENMOLCASOPENM
               OPENMOLCASOPENMOLCA        version: v23.10 ?
                   OPENMOLCASO
                       OPE                tag:

 OpenMolcas is free software; you can redistribute it and/or modify it
 under the terms of the GNU Lesser General Public License version 2.1.
 OpenMolcas is distributed in the hope that it will be useful, but it
 is provided "as is" and without any express or implied warranties.
 For more details see the full text of the license in the file
 LICENSE or in <http://www.gnu.org/licenses/>.

                 Copyright (C) The OpenMolcas Authors
           For the author list and the recommended citation,
                   consult the file CONTRIBUTORS.md

           *************************************************
           * pymolcas version py2.25                       *
           *   build 2b27fa14244bdc32cb1957e6230cd793      *
           *   (after the EMIL interpreter by V. Veryazov) *
           *************************************************

configuration info
------------------
Host name: cpn-h22-29.core.ccr.buffalo.edu (Linux)
C Compiler ID: Intel
C flags: -O2 -xCore-AVX512 -ftz -fp-speculation=safe -fp-model source -std=gnu99 -gcc-sys -qopenmp
Fortran Compiler ID: Intel
Fortran flags: -O2 -xCore-AVX512 -ftz -fp-speculation=safe -fp-model source  -fpp -i8 -heap-arrays -qopenmp
Definitions: _MOLCAS_;_I8_;_LINUX_;_MOLCAS_MPP_;_SCALAPACK_;_GA_
Parallel: ON (GA=ON)


   -----------------------------------------------------------------------------------------------------------------------------------------------------
  |
  |           Project: relaxed_scan_tbhp_casscf
  |    Submitted from: /vscratch/grp-cyberwksp21/hclifford/openmolcas/PES/runs_relaxed_s1/R_2p60
  |      Scratch area: /vscratch/grp-cyberwksp21/hclifford/openmolcas/PES/runs_relaxed_s1/R_2p60/molcas_scratch_R_2p60/relaxed_scan_tbhp_casscf
  |   Save outputs to: /vscratch/grp-cyberwksp21/hclifford/openmolcas/PES/runs_relaxed_s1/R_2p60
  |            Molcas: /cvmfs/soft.ccr.buffalo.edu/versions/2023.01/easybuild/software/avx512/MPI/intel/2022.0.1/impi/2021.5.0/openmolcas/23.10
  |
  | Scratch area is empty
  |
  |    MOLCAS_DRIVER = /cvmfs/soft.ccr.buffalo.edu/versions/2023.01/easybuild/software/avx512/MPI/intel/2022.0.1/impi/2021.5.0/openmolcas/23.10/pymolcas
  |    MOLCAS_MOLDEN = ON
  |    MOLCAS_NPROCS = 1
  |     MOLCAS_PRINT = NORMAL
  |    MOLCAS_SOURCE = /cvmfs/soft.ccr.buffalo.edu/versions/2023.01/easybuild/software/avx512/MPI/intel/2022.0.1/impi/2021.5.0/openmolcas/23.10
  | MOLCAS_STRUCTURE = 0
  |
   -----------------------------------------------------------------------------------------------------------------------------------------------------

++ ---------   Input file   ---------

&GATEWAY
  Coord = tbhp.xyz
  Basis = cc-pVDZ
  Group = NoSymm
  Constraints
    rOO = Bond O1 O2
  Values
    rOO = 2.60 Angstrom
  End of Constraints

>>> DO WHILE

  &SEWARD

  &RASSCF
    Spin = 1
    NActEl = 6 0 0
    Inactive = 22
    Ras2 = 4
    CiRoot = 4 4 1
    RlxRoot = 2
    LumOrb
    LevShift = 1.0

  &ALASKA

  &SLAPAF

>>> END DO

-- ----------------------------------

--- Start Module: gateway at Wed Jul  8 13:48:24 2026 ---
 
()()()()()()()()()()()()()()()()()()()()()()()()()()()()()()()()()()()()()()()()()()()()()()()()()()

                                              &GATEWAY

                       only a single process is used, running in SERIAL mode
                        available to each process: 12 GB of memory, 1 thread
                                            pid: 236290
()()()()()()()()()()()()()()()()()()()()()()()()()()()()()()()()()()()()()()()()()()()()()()()()()()
 
 
++    Symmetry information:
      ---------------------
 
                    Character Table for C1 
 
                             E  
                    a        1  x, y, xy, Rz, z, xz, Ry, yz, Rx, I
--
 
 
++    Basis set information:
      ----------------------
 
 
      Basis set label: C.CC-PVDZ.........
 
      Electronic valence basis set:
      ------------------
      Associated Effective Charge   6.000000 au
      Associated Actual Charge      6.000000 au
      Nuclear Model: Point charge
 
      Shell  nPrim  nBasis  Cartesian Spherical Contaminant
         s       9       3        X                  
         p       4       2        X                  
         d       1       1                 X         
 
 
      Basis set label: H.CC-PVDZ.........
 
      Electronic valence basis set:
      ------------------
      Associated Effective Charge   1.000000 au
      Associated Actual Charge      1.000000 au
      Nuclear Model: Point charge
 
      Shell  nPrim  nBasis  Cartesian Spherical Contaminant
         s       4       2        X                  
         p       1       1        X                  
 
 
      Basis set label: O.CC-PVDZ.........
 
      Electronic valence basis set:
      ------------------
      Associated Effective Charge   8.000000 au
      Associated Actual Charge      8.000000 au
      Nuclear Model: Point charge
 
      Shell  nPrim  nBasis  Cartesian Spherical Contaminant
         s       9       3        X                  
         p       4       2        X                  
         d       1       1                 X         
 
 
      Basis set label: H.CC-PVDZ.........
 
      Electronic valence basis set:
      ------------------
      Associated Effective Charge   1.000000 au
      Associated Actual Charge      1.000000 au
      Nuclear Model: Point charge
 
      Shell  nPrim  nBasis  Cartesian Spherical Contaminant
         s       4       2        X                  
         p       1       1        X                  
 
 
      Basis set label: C.CC-PVDZ.........
 
      Electronic valence basis set:
      ------------------
      Associated Effective Charge   6.000000 au
      Associated Actual Charge      6.000000 au
      Nuclear Model: Point charge
 
      Shell  nPrim  nBasis  Cartesian Spherical Contaminant
         s       9       3        X                  
         p       4       2        X                  
         d       1       1                 X         
 
 
      Basis set label: H.CC-PVDZ.........
 
      Electronic valence basis set:
      ------------------
      Associated Effective Charge   1.000000 au
      Associated Actual Charge      1.000000 au
      Nuclear Model: Point charge
 
      Shell  nPrim  nBasis  Cartesian Spherical Contaminant
         s       4       2        X                  
         p       1       1        X                  
 
 
      Basis set label: C.CC-PVDZ.........
 
      Electronic valence basis set:
      ------------------
      Associated Effective Charge   6.000000 au
      Associated Actual Charge      6.000000 au
      Nuclear Model: Point charge
 
      Shell  nPrim  nBasis  Cartesian Spherical Contaminant
         s       9       3        X                  
         p       4       2        X                  
         d       1       1                 X         
 
 
      Basis set label: H.CC-PVDZ.........
 
      Electronic valence basis set:
      ------------------
      Associated Effective Charge   1.000000 au
      Associated Actual Charge      1.000000 au
      Nuclear Model: Point charge
 
      Shell  nPrim  nBasis  Cartesian Spherical Contaminant
         s       4       2        X                  
         p       1       1        X                  
--
 
 
++    Molecular structure info:
      -------------------------
 
                    ************************************************ 
                    **** Cartesian Coordinates / Bohr, Angstrom **** 
                    ************************************************ 
 
     Center  Label                x              y              z                     x              y              z
        1      C1              -0.021542       0.141236      -0.863799             -0.011400       0.074739      -0.457103
        2      C2               0.831168       2.894138      -0.976131              0.439835       1.531512      -0.516547
        3      H3               0.063091       3.973818       0.597379              0.033386       2.102854       0.316120
        4      H4               2.889618       3.006368      -0.897928              1.529120       1.590901      -0.475163
        5      O1               1.048443      -1.087412       1.282909              0.554812      -0.575434       0.678886
        6      O2              -0.725138       1.166448       5.272260             -0.383727       0.617258       2.789960
        7      H7               1.263745      -0.351457       4.767996              0.668745      -0.185983       2.523115
        8      C8               1.105388      -1.375518      -3.048072              0.584946      -0.727893      -1.612970
        9      H9               0.556259      -3.358152      -2.914267              0.294360      -1.777058      -1.542164
       10      H10              3.164481      -1.268188      -3.022044              1.674571      -0.671096      -1.599197
       11      H11              0.434286      -0.629140      -4.848329              0.229814      -0.332927      -2.565625
       12      C12             -2.895285      -0.095819      -0.822797             -1.532119      -0.050705      -0.435405
       13      H13             -3.445010      -2.076354      -0.655641             -1.823021      -1.098759      -0.346950
       14      H14             -3.697104       0.662660      -2.566952             -1.956423       0.350665      -1.358373
       15      H15             -3.702320       0.934206       0.764700             -1.959183       0.494360       0.404662
       16      H16              0.198038       3.766686      -2.736247              0.104797       1.993244      -1.447959
 
                    ************************************************* 
                    **** InterNuclear Distances / Bohr, Angstrom **** 
                    ************************************************* 
 
     Atom centers         Bohr        Angstrom
    3 H3        2 C2      2.057082        1.088561
   15 H15      12 C12     2.057280        1.088666
   11 H11       8 C8      2.061161        1.090720
    9 H9        8 C8      2.061622        1.090963
   10 H10       8 C8      2.062053        1.091191
   13 H13      12 C12     2.062197        1.091268
    4 H4        2 C2      2.062990        1.091687
   14 H14      12 C12     2.064025        1.092235
   16 H16       2 C2    
    7 H7        6 O2      2.552249        1.350592
    5 O1        1 C1      2.694958        1.426110
   12 C12       1 C1      2.883795        1.526039
    2 C2        1 C1      2.884130        1.526216
    8 C8        1 C1      2.888177        1.528357
   15 H15      13 H13     3.338719        1.766774
    4 H4        3 H3      3.340833        1.767893
   15 H15      14 H14     3.342704        1.768883
   16 H16       3 H3      3.342780        1.768923
   10 H10       9 H9      3.344008        1.769573
   11 H11      10 H10     3.346292        1.770781
   16 H16       4 H4      3.346954        1.771132
   11 H11       9 H9      3.347086        1.771202
   14 H14      13 H13     3.349457        1.772456
    7 H7        5 O1      3.568447        1.888341
   11 H11       1 C1      4.083839        2.161075
   13 H13       1 C1      4.084258        2.161296
   14 H14       1 C1      4.084405        2.161374
    4 H4        1 C1      4.084728        2.161545
   16 H16       1 C1      4.086339        2.162397
    9 H9        1 C1      4.096827        2.167948
   10 H10       1 C1      4.098200        2.168674
   15 H15       1 C1      4.102308        2.170848
    3 H3        1 C1      4.102547        2.170974
    8 C8        5 O1      4.340927        2.297119
   12 C12       5 O1      4.579328        2.423276
    5 O1        2 C2      4.582926        2.425180
   12 C12       8 C8      4.753406        2.515394
    8 C8        2 C2      4.753746        2.515574
   13 H13       9 H9      4.770174        2.524267
   12 C12       2 C2      4.780148        2.529545
   10 H10       4 H4      4.781134        2.530067
    9 H9        5 O1      4.797374        2.538661
   10 H10       5 O1      4.800304        2.540212
   15 H15       3 H3      4.842061        2.562308
   16 H16      11 H11     4.882622        2.583772
   14 H14      11 H11     4.893037        2.589284
    6 O2        5 O1      4.913288        2.600000
   16 H16      14 H14     4.983550        2.637181
    5 O1        4 H4      4.990492        2.640855
   13 H13       5 O1      4.992705        2.642026
   13 H13       8 C8      5.188547        2.745661
   15 H15       5 O1      5.188952        2.745875
   12 C12       9 H9      5.189434        2.746130
   10 H10       2 C2      5.191827        2.747397
    8 C8        4 H4      5.196876        2.750068
    5 O1        3 H3      5.201626        2.752582
   12 C12       3 H3      5.227890        2.766480
   16 H16       8 C8      5.230945        2.768097
   15 H15       2 C2      5.236825        2.771209
   14 H14       8 C8      5.239235        2.772484
   11 H11       2 C2      5.250231        2.778302
   12 C12      11 H11     5.251227        2.778830
   14 H14       2 C2      5.292963        2.800915
   16 H16      12 C12     5.305553        2.807577
   15 H15       6 O2      5.407000        2.861261
    6 O2        3 H3      5.509731        2.915624
--
 
 
            Nuclear Potential Energy            249.16628421 au
 
--- Stop Module: gateway at Wed Jul  8 13:48:25 2026 /rc=_RC_ALL_IS_WELL_ ---
*** files: xmldump
    saved to directory /vscratch/grp-cyberwksp21/hclifford/openmolcas/PES/runs_relaxed_s1/R_2p60

--- Start Module: seward at Wed Jul  8 13:48:25 2026 ---
 
()()()()()()()()()()()()()()()()()()()()()()()()()()()()()()()()()()()()()()()()()()()()()()()()()()

                                              &SEWARD

                       only a single process is used, running in SERIAL mode
                        available to each process: 12 GB of memory, 1 thread
                                            pid: 236294
()()()()()()()()()()()()()()()()()()()()()()()()()()()()()()()()()()()()()()()()()()()()()()()()()()
 
               SEWARD will generate:
                  Multipole Moment integrals up to order  2
                  Kinetic Energy integrals
                  Nuclear Attraction integrals (point charge)
                  One-Electron Hamiltonian integrals
                  Velocity integrals
                  Orbital angular momentum around (-0.0986  0.2746  0.2744 )
                  Velocity quadrupole around (-0.0986  0.2746  0.2744 )
                  Two-Electron Repulsion integrals
 
                   Integrals are discarded if absolute value <: 0.10E-13
                   Integral cutoff threshold is set to       <: 0.10E-15
 
            Nuclear Potential Energy            249.16628421 au
 
 
      Basis set specifications :
      Symmetry species         a  
      Basis functions          134
 
 
      Input file to MOLDEN was generated!
 
--- Stop Module: seward at Wed Jul  8 13:48:43 2026 /rc=_RC_ALL_IS_WELL_ ---
*** files: relaxed_scan_tbhp_casscf.GssOrb relaxed_scan_tbhp_casscf.guessorb.h5 relaxed_scan_tbhp_casscf.guessorb.molden xmldump
    saved to directory /vscratch/grp-cyberwksp21/hclifford/openmolcas/PES/runs_relaxed_s1/R_2p60
--- Module seward spent 17 seconds ---

*** symbolic link created: INPORB -> relaxed_scan_tbhp_casscf.GssOrb
--- Start Module: rasscf at Wed Jul  8 13:48:43 2026 ---
 
()()()()()()()()()()()()()()()()()()()()()()()()()()()()()()()()()()()()()()()()()()()()()()()()()()

                                              &RASSCF

                       only a single process is used, running in SERIAL mode
                        available to each process: 12 GB of memory, 1 thread
                                            pid: 236298
()()()()()()()()()()()()()()()()()()()()()()()()()()()()()()()()()()()()()()()()()()()()()()()()()()
 
 
      Header of the ONEINT file:
      --------------------------
      
      Integrals generated by Gateway/Seward, Wed Jul  8 13:48:25 2026
 
 
      OrdInt status: non-squared
 
 
      Cartesian coordinates in Angstrom:
      -----------------------------------------------------
      No.  Label        X            Y            Z        
      -----------------------------------------------------
       1   C1        -0.01139969   0.07473874  -0.45710275
       2   C2         0.43983524   1.53151203  -0.51654652
       3   H3         0.03338615   2.10285377   0.31611957
       4   H4         1.52912019   1.59090129  -0.47516326
       5   O1         0.55481218  -0.57543356   0.67888606
       6   O2        -0.38372652   0.61725786   2.78995979
       7   H7         0.66874488  -0.18598325   2.52311476
       8   C8         0.58494633  -0.72789299  -1.61297035
       9   H9         0.29435984  -1.77705775  -1.54216375
      10   H10        1.67457144  -0.67109611  -1.59919702
      11   H11        0.22981418  -0.33292659  -2.56562545
      12   C12       -1.53211881  -0.05070542  -0.43540531
      13   H13       -1.82302072  -1.09875916  -0.34695030
      14   H14       -1.95642321   0.35066475  -1.35837253
      15   H15       -1.95918318   0.49436032   0.40466163
      16   H16        0.10479738   1.99324446  -1.44795932
      -----------------------------------------------------
      Nuclear repulsion energy =  249.16628421
 
++    Wave function specifications:
      -----------------------------
 
      Number of closed shell electrons          44
      Number of electrons in active shells       6
      Max number of holes in RAS1 space          0
      Max nr of electrons in RAS3 space          0
      Number of inactive orbitals               22
      Number of active orbitals                  4
      Number of secondary orbitals             108
      Spin quantum number                      0.0
      State symmetry                             1
--
 
++    Orbital specifications:
      -----------------------
 
      Symmetry species                           1
                                                 a
      Frozen orbitals                            0
      Inactive orbitals                         22
      Active orbitals                            4
      RAS1 orbitals                              0
      RAS2 orbitals                              4
      RAS3 orbitals                              0
      Secondary orbitals                       108
      Deleted orbitals                           0
      Number of basis functions                134
--
 
++    CI expansion specifications:
      ----------------------------
 
      Number of CSFs                            10
      Number of determinants                    10
      Number of root(s) required                 4
      Root chosen for geometry opt.              2
      CI roots used                              1     2     3     4
      weights                                0.250 0.250 0.250 0.250
      highest root included in the CI            4
      max. size of the explicit Hamiltonian     10
--
 
++    Optimization specifications:
      ----------------------------
 
      RASSCF algorithm: Conventional
      Maximum number of macro iterations       200
      Maximum number of SX iterations          100
      Threshold for RASSCF energy            0.100E-07
      Threshold for max MO rotation          0.100E+00
      Threshold for max BLB element          0.100E-03
      Level shift parameter                  0.100E+01
      Make Quasi-Newton update
--
 
      The MO-coefficients are taken from the file:
      INPORB                                                                                                                                                                                                                                                          
      Title:Guess orbitals                                                                 
 
      Total molecular charge    0.00
 
      ************************************************************************************************************************
      *                                                                                                                      *
      *                                            Wave function control section                                             *
      *                                                                                                                      *
      ************************************************************************************************************************
 
 
                                         RASSCF iterations: Energy and convergence statistics
                                         ----------------------------------------------------
 
      Iter CI   SX   CI       RASSCF       Energy    max ROT     max BLB   max BLB  Level Ln srch  Step   QN   Walltime
          iter iter root      energy       change     param      element    value   shift minimum  type update hh:mm:ss
 Nr of preliminary CI iterations:   1
        1   1  100    0  -305.43152414    0.00E+00   0.11E+00*  20 110 1 -0.33E+00*  1.67   0.00    SX    NO    0:00:03
        2   1  100    0  -306.20674550   -0.78E+00*  0.91E-01   10  39 1  0.15E+00*  1.32   0.00    SX    NO    0:00:02
        3   1  100    0  -306.43034727   -0.22E+00*  0.60E-01   10  39 1  0.77E-01*  1.14   0.00    SX    NO    0:00:02
        4   1  100    0  -306.50247836   -0.72E-01* -0.54E-01   20  24 1  0.48E-01*  1.06   0.00    SX    NO    0:00:02
        5   1   33    0  -306.53383073   -0.31E-01* -0.60E-01   20  24 1  0.37E-01*  1.02   2.50    LS   YES    0:00:01
        6   1   11    0  -306.55449422   -0.21E-01* -0.43E-01   20  24 1  0.24E-01*  0.98   1.88    LS   YES    0:00:01
        7   1   28    0  -306.56012327   -0.56E-02* -0.58E-01   20  27 1  0.23E-01*  0.97   1.24    QN   YES    0:00:01
        8   1   10    0  -306.56777460   -0.77E-02* -0.18E+00*  20  27 1  0.23E-01*  0.96   2.50    QN   YES    0:00:01
        9   1   16    0  -306.58481235   -0.17E-01* -0.15E+00*  16  27 1 -0.23E-01*  0.93   2.50    LS   YES    0:00:01
       10   1   22    0  -306.59409895   -0.93E-02* -0.13E+00*  19  23 1  0.45E-01*  0.85   2.50    LS   YES    0:00:01
       11   1  100    0  -306.61211977   -0.18E-01* -0.32E+00*  19  23 1  0.72E-01*  0.86   1.90    QN   YES    0:00:02
       12   1   31    0  -306.62947221   -0.17E-01*  0.44E-01   19  23 1  0.53E-01*  0.85   0.81    QN   YES    0:00:01
       13   1  100    0  -306.66056568   -0.31E-01* -0.18E+00*  19  23 1  0.48E-01*  0.86   2.50    QN   YES    0:00:02
       14   1   27    0  -306.70675697   -0.46E-01*  0.11E+00*  24  27 1 -0.42E-01*  0.88   1.68    QN   YES    0:00:01
       15   1   36    0  -306.73541801   -0.29E-01* -0.11E+00*  24  27 1 -0.40E-01*  0.90   1.50    QN   YES    0:00:01
       16   1   72    0  -306.75514389   -0.20E-01* -0.13E+00*  24  27 1 -0.36E-01*  0.90   1.77    QN   YES    0:00:01
       17   1   14    0  -306.77858688   -0.23E-01* -0.16E+00*  16  27 1  0.32E-01*  0.88   2.05    QN   YES    0:00:01
       18   1   18    0  -306.80276467   -0.24E-01* -0.11E+00*  16  27 1  0.34E-01*  0.87   1.82    QN   YES    0:00:01
       19   1   14    0  -306.82285388   -0.20E-01* -0.89E-01   23 106 1  0.29E-01*  0.87   1.78    QN   YES    0:00:01
       20   1    8    0  -306.83788159   -0.15E-01*  0.46E-01   16  27 1  0.22E-01*  0.87   1.77    QN   YES    0:00:01
       21   1   10    0  -306.84728514   -0.94E-02* -0.36E-01   19  23 1  0.22E-01*  0.86   1.49    QN   YES    0:00:01
       22   1    9    0  -306.85218649   -0.49E-02*  0.37E-01   20  27 1 -0.15E-01*  0.86   1.60    QN   YES    0:00:01
       23   1    9    0  -306.85569020   -0.35E-02*  0.35E-01   20  25 1  0.96E-02*  0.86   1.83    QN   YES    0:00:01
       24   1    9    0  -306.85817235   -0.25E-02*  0.27E-01   20  25 1  0.84E-02*  0.86   1.73    QN   YES    0:00:01
       25   1    8    0  -306.85959043   -0.14E-02* -0.27E-01   20  25 1  0.67E-02*  0.86   1.74    QN   YES    0:00:01
       26   1    8    0  -306.86044729   -0.86E-03*  0.26E-01   20  25 1  0.48E-02*  0.86   1.71    QN   YES    0:00:01
       27   1    8    0  -306.86093558   -0.49E-03*  0.19E-01   22  26 1  0.31E-02*  0.86   1.61    QN   YES    0:00:01
       28   1    8    0  -306.86116741   -0.23E-03*  0.12E-01   20  24 1 -0.19E-02*  0.86   1.57    QN   YES    0:00:01
       29   1    7    0  -306.86127457   -0.11E-03*  0.74E-02   20  24 1 -0.16E-02*  0.86   1.59    QN   YES    0:00:01
       30   1    7    0  -306.86132621   -0.52E-04* -0.50E-02   24  27 1 -0.13E-02*  0.86   1.54    QN   YES    0:00:01
       31   1    7    0  -306.86134751   -0.21E-04* -0.21E-02   24  27 1 -0.10E-02*  0.86   1.47    QN   YES    0:00:01
       32   1    7    0  -306.86135503   -0.75E-05* -0.68E-03   24  27 1 -0.65E-03*  0.86   1.47    QN   YES    0:00:01
       33   1    6    0  -306.86135787   -0.28E-05* -0.47E-03   24  27 1 -0.35E-03*  0.86   1.49    QN   YES    0:00:01
       34   1    6    0  -306.86135898   -0.11E-05* -0.22E-03   24  27 1 -0.15E-03*  0.86   1.42    QN   YES    0:00:01
       35   1    6    0  -306.86135930   -0.32E-06*  0.12E-03   24  27 1 -0.52E-04   0.86   1.34    QN   YES    0:00:01
       36   1    5    0  -306.86135937   -0.65E-07* -0.45E-04   23  27 1  0.35E-04   0.86   1.33    QN   YES    0:00:01
       37   1    5    0  -306.86135938   -0.13E-07* -0.25E-04   23  27 1  0.23E-04   0.86   1.39    QN   YES    0:00:01
       38   1    4    0  -306.86135938   -0.35E-08  -0.15E-04   23  27 1  0.15E-04   0.86   1.41    QN   YES    0:00:01
      Convergence after 38 iterations
       39   1    4    0  -306.86135938   -0.11E-08  -0.15E-04   23  27 1  0.87E-05   0.86   1.41    QN   YES    0:00:01
 
      ************************************************************************************************************************
                                                      Wave function printout:
                       occupation of active orbitals, and spin coupling of open shells (u,d: Spin up or down)
      ************************************************************************************************************************
 
      Note: transformation to natural orbitals
      has been made, which may change the order of the CSFs.
 
      printout of CI-coefficients larger than  0.05 for root  1
      energy=    -306.867557
      conf/sym  1111     Coeff  Weight
             1  2220  -0.76545 0.58591
             2  22ud  -0.11178 0.01249
             8  2022   0.62372 0.38902
             9  ud22  -0.09754 0.00951
 
      printout of CI-coefficients larger than  0.05 for root  2
      energy=    -306.864250
      conf/sym  1111     Coeff  Weight
             1  2220  -0.10233 0.01047
             2  22ud   0.54229 0.29407
             3  2202   0.08417 0.00708
             5  2ud2  -0.45582 0.20777
             6  u22d  -0.49409 0.24412
             8  2022   0.08307 0.00690
             9  ud22   0.47265 0.22340
            10  0222  -0.07858 0.00617
 
      printout of CI-coefficients larger than  0.05 for root  3
      energy=    -306.858069
      conf/sym  1111     Coeff  Weight
             2  22ud   0.49046 0.24055
             3  2202   0.12163 0.01479
             5  2ud2   0.50059 0.25059
             6  u22d   0.54173 0.29347
             9  ud22   0.42853 0.18363
            10  0222  -0.11500 0.01323
 
      printout of CI-coefficients larger than  0.05 for root  4
      energy=    -306.855562
      conf/sym  1111     Coeff  Weight
             2  22ud   0.14364 0.02063
             3  2202  -0.70853 0.50201
             9  ud22   0.12529 0.01570
            10  0222   0.67484 0.45541
 
      Natural orbitals and occupation numbers for root  1
      sym 1:   1.998695   1.201929   1.996962   0.802414
 
      Natural orbitals and occupation numbers for root  2
      sym 1:   1.997888   1.997853   1.021817   0.982442
 
      Natural orbitals and occupation numbers for root  3
      sym 1:   0.997366   1.007834   1.997465   1.997336
 
      Natural orbitals and occupation numbers for root  4
      sym 1:   1.053679   1.998273   0.950200   1.997848
 
      ************************************************************************************************************************
      *                                                                                                                      *
      *                                                    Final results                                                     *
      *                                                                                                                      *
      ************************************************************************************************************************
 
 
++    Wave function specifications:
      -----------------------------
 
      Number of closed shell electrons          44
      Number of electrons in active shells       6
      Max number of holes in RAS1 space          0
      Max nr of electrons in RAS3 space          0
      Number of inactive orbitals               22
      Number of active orbitals                  4
      Number of secondary orbitals             108
      Spin quantum number                      0.0
      State symmetry                             1
--
 
++    Orbital specifications:
      -----------------------
 
      Symmetry species                           1
                                                 a
      Frozen orbitals                            0
      Inactive orbitals                         22
      Active orbitals                            4
      RAS1 orbitals                              0
      RAS2 orbitals                              4
      RAS3 orbitals                              0
      Secondary orbitals                       108
      Deleted orbitals                           0
      Number of basis functions                134
--
 
++    CI expansion specifications:
      ----------------------------
 
      Number of CSFs                            10
      Number of determinants                    10
      Number of root(s) required                 4
      CI roots used                              1     2     3     4
      weights                                0.250 0.250 0.250 0.250
      highest root included in the CI            4
      Root passed to geometry opt.               2
--
 
++    Final optimization conditions:
      ------------------------------
 
      Average CI energy                            -306.86135938
      RASSCF energy for state  2                   -306.86424976
      Super-CI energy                                -0.00000000
      RASSCF energy change                           -0.00000000
      Max change in MO coefficients              -0.180E-04
      Max non-diagonal density matrix element    -0.152E-04
      Maximum BLB matrix element                  0.874E-05
      (orbital pair  23,  27 in symmetry   1)
      Norm of electronic gradient            0.568E-01
--
 
 
      Final state energy(ies):
      ------------------------
 
::    RASSCF root number  1 Total energy:   -306.86755653
::    RASSCF root number  2 Total energy:   -306.86424976
::    RASSCF root number  3 Total energy:   -306.85806938
::    RASSCF root number  4 Total energy:   -306.85556186
 
++    Molecular orbitals:
      -------------------
 
      Pseudonatural active orbitals and approximate occupation numbers
 
 
 
 
      Molecular orbitals for symmetry species 1: a  
 
 
      Orbital                 1         2         3         4         5         6         7         8         9        10
      Energy           -20.6047  -20.5954  -11.2982  -11.2303  -11.2296  -11.2278   -1.3365   -1.1982   -1.0646   -0.9500
      Occ. No.           2.0000    2.0000    2.0000    2.0000    2.0000    2.0000    2.0000    2.0000    2.0000    2.0000
 
     1 C1     1s        -0.0002    0.0000   -1.0020    0.0044   -0.0044   -0.0044   -0.0102    0.0013   -0.0171   -0.0002
     2 C1     2s        -0.0008    0.0000   -0.0104   -0.0003    0.0004    0.0004    0.3484   -0.0387    0.4239   -0.0013
     3 C1     *s         0.0045   -0.0004    0.0171   -0.0005    0.0002    0.0005   -0.1243    0.0009    0.0027    0.0006
     4 C1     2px        0.0002   -0.0000   -0.0004   -0.0001    0.0001   -0.0003    0.0629   -0.0063   -0.0578   -0.0954
     5 C1     *px        0.0012   -0.0002    0.0000   -0.0004    0.0003   -0.0006   -0.0286   -0.0015    0.0067    0.0004
     6 C1     2py       -0.0002   -0.0000    0.0005   -0.0003   -0.0002   -0.0000   -0.0720    0.0073    0.0674   -0.2270
     7 C1     *py       -0.0014    0.0005   -0.0000   -0.0006   -0.0004   -0.0003    0.0308    0.0048   -0.0056    0.0128
     8 C1     2pz        0.0004   -0.0001   -0.0008    0.0000   -0.0003   -0.0000    0.1191   -0.0076   -0.1305   -0.0709
     9 C1     *pz        0.0020    0.0005   -0.0006   -0.0005   -0.0002    0.0006   -0.0583    0.0081    0.0132    0.0062
    10 C1     *d2-      -0.0000    0.0000    0.0000    0.0001    0.0000   -0.0000   -0.0088    0.0007    0.0065   -0.0123
    11 C1     *d1-      -0.0001   -0.0000    0.0001    0.0000   -0.0001   -0.0001   -0.0159    0.0013    0.0133    0.0079
    12 C1     *d0        0.0001   -0.0001   -0.0000   -0.0001   -0.0000    0.0001    0.0113   -0.0010   -0.0127    0.0082
    13 C1     *d1+       0.0001    0.0000   -0.0001   -0.0001    0.0001    0.0000    0.0139   -0.0010   -0.0118   -0.0064
    14 C1     *d2+       0.0000    0.0000    0.0000   -0.0001    0.0000   -0.0001   -0.0013    0.0001    0.0007    0.0188
    15 C2     1s        -0.0000    0.0000   -0.0044   -1.0018    0.0128    0.0034   -0.0021    0.0004   -0.0115    0.0191
    16 C2     2s        -0.0002    0.0001    0.0003   -0.0104   -0.0005   -0.0006    0.0828   -0.0096    0.3650   -0.6159
    17 C2     *s        -0.0002   -0.0005   -0.0035    0.0123    0.0012    0.0012   -0.0314   -0.0027   -0.1414    0.1869
    18 C2     2px        0.0000    0.0000    0.0001   -0.0000   -0.0001    0.0002   -0.0076    0.0005   -0.0322   -0.0047
    19 C2     *px       -0.0003    0.0001    0.0003   -0.0003    0.0003   -0.0008    0.0038    0.0037    0.0166    0.0003
    20 C2     2py        0.0002    0.0000    0.0003   -0.0001    0.0001    0.0000   -0.0439    0.0057   -0.0735    0.0001
    21 C2     *py        0.0001   -0.0000    0.0014   -0.0008   -0.0007   -0.0003    0.0151   -0.0060    0.0376   -0.0156
    22 C2     2pz       -0.0001    0.0000    0.0000    0.0002    0.0001    0.0000    0.0099    0.0004   -0.0140   -0.0112
    23 C2     *pz       -0.0004   -0.0002   -0.0002   -0.0002   -0.0006   -0.0001    0.0010   -0.0019    0.0042    0.0099
    24 C2     *d2-       0.0000   -0.0000    0.0000    0.0001   -0.0000    0.0001    0.0020   -0.0003    0.0058   -0.0011
    25 C2     *d1-       0.0001    0.0000   -0.0001   -0.0000    0.0001    0.0000   -0.0023    0.0003    0.0014    0.0008
    26 C2     *d0        0.0000   -0.0000   -0.0001   -0.0001    0.0000   -0.0001   -0.0040    0.0000   -0.0048    0.0012
    27 C2     *d1+       0.0001    0.0000   -0.0000   -0.0000   -0.0001    0.0000   -0.0021    0.0003    0.0006    0.0003
    28 C2     *d2+       0.0001    0.0000   -0.0001   -0.0002   -0.0001    0.0001   -0.0061    0.0005   -0.0063    0.0013
    29 H3     1s         0.0001    0.0000    0.0004   -0.0002   -0.0000   -0.0002    0.0190   -0.0006    0.1195   -0.2621
    30 H3     *s        -0.0000    0.0003   -0.0002   -0.0011    0.0004   -0.0001   -0.0105    0.0095   -0.0529    0.1156
    31 H3     *px        0.0000    0.0000    0.0000    0.0002   -0.0000    0.0001    0.0009    0.0001    0.0032   -0.0085
    32 H3     *py        0.0001   -0.0000    0.0000   -0.0002    0.0000    0.0000   -0.0017   -0.0004   -0.0066    0.0104
    33 H3     *pz       -0.0000   -0.0000   -0.0000   -0.0003    0.0000    0.0000   -0.0010    0.0001   -0.0084    0.0163
    34 H4     1s        -0.0000    0.0000    0.0004   -0.0001   -0.0002   -0.0000    0.0222   -0.0035    0.1195   -0.2619
    35 H4     *s         0.0001   -0.0001   -0.0002   -0.0011   -0.0001    0.0004   -0.0108   -0.0002   -0.0547    0.1122
    36 H4     *px        0.0000    0.0000    0.0000   -0.0005   -0.0000    0.0000   -0.0025    0.0003   -0.0107    0.0208
    37 H4     *py        0.0001    0.0000    0.0001    0.0000    0.0000   -0.0000   -0.0009    0.0003   -0.0017    0.0006
    38 H4     *pz       -0.0000    0.0000    0.0000   -0.0000    0.0001    0.0000    0.0006   -0.0001   -0.0009    0.0005
    39 O1     1s         1.0008    0.0004    0.0001    0.0000   -0.0001   -0.0000   -0.0071   -0.0001    0.0018   -0.0000
    40 O1     2s         0.0033    0.0000   -0.0001    0.0002   -0.0003   -0.0002    0.8284   -0.0483   -0.3640   -0.0153
    41 O1     *s        -0.0060   -0.0001   -0.0011   -0.0000    0.0004    0.0000   -0.0124    0.0042   -0.0326   -0.0026
    42 O1     2px       -0.0007    0.0001    0.0001   -0.0000    0.0000    0.0001   -0.0492    0.0059   -0.0303   -0.0135
    43 O1     *px        0.0012   -0.0002   -0.0001   -0.0000    0.0001   -0.0002    0.0078   -0.0021    0.0021    0.0069
    44 O1     2py        0.0008   -0.0001   -0.0001    0.0001   -0.0000   -0.0000    0.0604   -0.0061    0.0313   -0.0269
    45 O1     *py       -0.0014    0.0001    0.0000   -0.0002   -0.0001    0.0000   -0.0075    0.0006   -0.0040    0.0140
    46 O1     2pz       -0.0013   -0.0000    0.0003   -0.0000    0.0001    0.0001   -0.0973    0.0192   -0.0621   -0.0149
    47 O1     *pz        0.0024   -0.0001   -0.0002    0.0000   -0.0004   -0.0000    0.0144   -0.0062    0.0056    0.0038
    48 O1     *d2-       0.0000   -0.0000   -0.0001   -0.0000   -0.0000    0.0000   -0.0037    0.0001   -0.0013    0.0002
    49 O1     *d1-       0.0001   -0.0000   -0.0002    0.0000    0.0000   -0.0000   -0.0073    0.0012   -0.0025    0.0016
    50 O1     *d0       -0.0001   -0.0000    0.0001    0.0000    0.0001   -0.0000    0.0061   -0.0001    0.0013    0.0016
    51 O1     *d1+      -0.0001   -0.0000    0.0002   -0.0000   -0.0000    0.0000    0.0068   -0.0010    0.0019    0.0011
    52 O1     *d2+       0.0000    0.0000   -0.0000    0.0000   -0.0000    0.0001   -0.0006   -0.0000   -0.0002    0.0018
    53 O2     1s        -0.0004    1.0002    0.0000   -0.0000   -0.0000    0.0000   -0.0001   -0.0044   -0.0002   -0.0002
    54 O2     2s        -0.0000    0.0005    0.0001   -0.0001   -0.0000    0.0001    0.0508    0.9516    0.0300    0.0079
    55 O2     *s        -0.0000   -0.0011   -0.0001    0.0001    0.0000   -0.0001   -0.0030    0.0101    0.0027    0.0013
    56 O2     2px       -0.0000    0.0010    0.0000    0.0000   -0.0000   -0.0000    0.0054    0.0249   -0.0048   -0.0025
    57 O2     *px        0.0000   -0.0011   -0.0000   -0.0000    0.0000    0.0000   -0.0018   -0.0017    0.0009    0.0001
    58 O2     2py        0.0000   -0.0007   -0.0000   -0.0000    0.0000    0.0000   -0.0040   -0.0181    0.0037    0.0013
    59 O2     *py       -0.0000    0.0008    0.0000    0.0000   -0.0000   -0.0000    0.0013    0.0020   -0.0004   -0.0000
    60 O2     2pz        0.0001   -0.0002   -0.0000    0.0000    0.0000   -0.0000   -0.0026   -0.0074    0.0007    0.0008
    61 O2     *pz       -0.0000    0.0003    0.0001   -0.0000   -0.0000    0.0000    0.0005    0.0020    0.0008   -0.0015
    62 O2     *d2-       0.0000    0.0001    0.0000   -0.0000   -0.0000   -0.0000   -0.0004   -0.0031    0.0002    0.0000
    63 O2     *d1-      -0.0000   -0.0000   -0.0000   -0.0000    0.0000    0.0000    0.0004    0.0006   -0.0003    0.0001
    64 O2     *d0       -0.0000    0.0001   -0.0000    0.0000    0.0000   -0.0000    0.0002   -0.0018   -0.0000   -0.0000
    65 O2     *d1+       0.0000    0.0000    0.0000   -0.0000   -0.0000   -0.0000   -0.0003   -0.0009    0.0002    0.0001
    66 O2     *d2+      -0.0000   -0.0000   -0.0000   -0.0000    0.0000   -0.0000    0.0000    0.0009    0.0000    0.0000
    67 H7     1s        -0.0001    0.0006    0.0001    0.0000    0.0000   -0.0000    0.0248    0.1462   -0.0117   -0.0022
    68 H7     *s         0.0001    0.0005   -0.0000   -0.0000    0.0000   -0.0000   -0.0043   -0.0539    0.0005    0.0015
    69 H7     *px       -0.0000   -0.0002   -0.0000    0.0000    0.0000    0.0000   -0.0011   -0.0133   -0.0001    0.0000
    70 H7     *py        0.0000    0.0002   -0.0000    0.0000   -0.0000   -0.0000    0.0001    0.0106    0.0004   -0.0001
    71 H7     *pz       -0.0000    0.0000   -0.0001   -0.0000   -0.0000    0.0000   -0.0021    0.0043    0.0013    0.0000
    72 C8     1s        -0.0001   -0.0000   -0.0043    0.0132    1.0018    0.0046   -0.0023    0.0003   -0.0111   -0.0110
    73 C8     2s        -0.0003   -0.0001    0.0003    0.0008    0.0104   -0.0006    0.0970   -0.0187    0.3510    0.3457
    74 C8     *s        -0.0003    0.0007   -0.0038   -0.0016   -0.0122    0.0014   -0.0411    0.0144   -0.1333   -0.1009
    75 C8     2px        0.0000   -0.0000    0.0002    0.0000    0.0000    0.0002   -0.0130    0.0019   -0.0403   -0.0247
    76 C8     *px       -0.0001   -0.0001    0.0005   -0.0000    0.0004   -0.0009    0.0059   -0.0010    0.0186    0.0132
    77 C8     2py       -0.0001    0.0000   -0.0002    0.0001   -0.0000   -0.0000    0.0186   -0.0028    0.0530   -0.0269
    78 C8     *py        0.0001    0.0001   -0.0007   -0.0009   -0.0005    0.0002   -0.0078    0.0014   -0.0250    0.0102
    79 C8     2pz       -0.0002    0.0000   -0.0002    0.0000   -0.0002   -0.0000    0.0463   -0.0066    0.0451    0.0051
    80 C8     *pz       -0.0002    0.0003   -0.0012   -0.0001   -0.0005    0.0002   -0.0151    0.0059   -0.0257   -0.0090
    81 C8     *d2-      -0.0001   -0.0000    0.0000   -0.0000    0.0001   -0.0000   -0.0010    0.0002   -0.0046   -0.0006
    82 C8     *d1-      -0.0001    0.0000    0.0001   -0.0001   -0.0002    0.0000    0.0059   -0.0006    0.0067   -0.0007
    83 C8     *d0        0.0000    0.0000    0.0001    0.0001   -0.0001   -0.0001    0.0033   -0.0000    0.0014    0.0007
    84 C8     *d1+       0.0001   -0.0000   -0.0000    0.0000    0.0001   -0.0001   -0.0044    0.0005   -0.0051   -0.0025
    85 C8     *d2+      -0.0000   -0.0000    0.0000    0.0001    0.0000    0.0001   -0.0005    0.0001   -0.0013    0.0014
    86 H9     1s        -0.0000   -0.0001    0.0004    0.0000    0.0001   -0.0002    0.0250   -0.0058    0.1143    0.1685
    87 H9     *s        -0.0001    0.0000   -0.0002   -0.0004    0.0011   -0.0001   -0.0111    0.0023   -0.0521   -0.0752
    88 H9     *px        0.0000   -0.0000    0.0000    0.0000   -0.0002    0.0001    0.0008   -0.0002    0.0018    0.0037
    89 H9     *py       -0.0000    0.0000   -0.0000    0.0000   -0.0004   -0.0000    0.0025   -0.0004    0.0103    0.0115
    90 H9     *pz       -0.0001   -0.0000   -0.0000   -0.0000    0.0001   -0.0000    0.0011   -0.0001   -0.0001   -0.0023
    91 H10    1s        -0.0000   -0.0001    0.0004    0.0002    0.0001   -0.0000    0.0250   -0.0059    0.1145    0.1270
    92 H10    *s        -0.0001    0.0000   -0.0002    0.0001    0.0011    0.0004   -0.0112    0.0025   -0.0521   -0.0524
    93 H10    *px        0.0000    0.0000    0.0000    0.0000    0.0005    0.0000   -0.0026    0.0005   -0.0104   -0.0113
    94 H10    *py       -0.0000    0.0000   -0.0000    0.0001    0.0001    0.0000   -0.0001    0.0001    0.0005   -0.0007
    95 H10    *pz       -0.0001   -0.0000   -0.0000    0.0000    0.0001    0.0000    0.0013   -0.0001    0.0004    0.0008
    96 H11    1s        -0.0001   -0.0000    0.0002    0.0002    0.0002   -0.0002    0.0192   -0.0038    0.1320    0.1403
    97 H11    *s         0.0002    0.0000   -0.0002    0.0001    0.0012   -0.0001   -0.0100    0.0028   -0.0630   -0.0612
    98 H11    *px       -0.0000    0.0000    0.0000    0.0000   -0.0002    0.0001    0.0006   -0.0001    0.0036    0.0031
    99 H11    *py        0.0000   -0.0000   -0.0000    0.0001    0.0002    0.0000   -0.0007    0.0002   -0.0040   -0.0048
   100 H11    *pz        0.0000    0.0000   -0.0001   -0.0000   -0.0004    0.0000    0.0023   -0.0005    0.0095    0.0102
   101 C12    1s        -0.0000    0.0000   -0.0042    0.0037   -0.0051    1.0019   -0.0020    0.0004   -0.0113   -0.0086
   102 C12    2s        -0.0002    0.0001    0.0003    0.0007   -0.0007    0.0104    0.0825   -0.0094    0.3584    0.2792
   103 C12    *s        -0.0002   -0.0003   -0.0035   -0.0013    0.0014   -0.0123   -0.0329   -0.0021   -0.1383   -0.0886
   104 C12    2px       -0.0002   -0.0000   -0.0003    0.0001   -0.0001   -0.0001    0.0448   -0.0057    0.0778    0.0033
   105 C12    *px       -0.0000    0.0001   -0.0014   -0.0005    0.0006   -0.0009   -0.0161    0.0064   -0.0395   -0.0104
   106 C12    2py        0.0000   -0.0000   -0.0001    0.0001    0.0001   -0.0000   -0.0017    0.0009    0.0151   -0.0360
   107 C12    *py        0.0003   -0.0002   -0.0000   -0.0007   -0.0004   -0.0001   -0.0002   -0.0056   -0.0079    0.0170
   108 C12    2pz       -0.0000   -0.0000    0.0000   -0.0000    0.0001   -0.0002    0.0077    0.0007   -0.0186   -0.0132
   109 C12    *pz       -0.0004   -0.0002   -0.0002    0.0002   -0.0006    0.0003    0.0019   -0.0022    0.0060    0.0033
   110 C12    *d2-       0.0001   -0.0000   -0.0000   -0.0001   -0.0001   -0.0000   -0.0005   -0.0001    0.0025   -0.0028
   111 C12    *d1-      -0.0001   -0.0000    0.0000    0.0000    0.0001   -0.0000    0.0015   -0.0002   -0.0004   -0.0003
   112 C12    *d0        0.0000   -0.0000   -0.0001    0.0001    0.0000    0.0001   -0.0043    0.0000   -0.0046   -0.0009
   113 C12    *d1+      -0.0001   -0.0000    0.0001    0.0000   -0.0001   -0.0000    0.0020   -0.0003   -0.0024   -0.0015
   114 C12    *d2+      -0.0001   -0.0000    0.0001    0.0000    0.0000   -0.0002    0.0064   -0.0005    0.0080    0.0010
   115 H13    1s        -0.0000    0.0000    0.0004    0.0000   -0.0002    0.0001    0.0219   -0.0036    0.1168    0.1400
   116 H13    *s         0.0001   -0.0001   -0.0002   -0.0004   -0.0001    0.0011   -0.0105    0.0000   -0.0534   -0.0635
   117 H13    *px       -0.0001   -0.0000   -0.0001    0.0000   -0.0000   -0.0001    0.0014   -0.0004    0.0039    0.0012
   118 H13    *py       -0.0000    0.0000    0.0000    0.0000    0.0000   -0.0005    0.0022   -0.0002    0.0099    0.0098
   119 H13    *pz       -0.0000    0.0000    0.0000   -0.0000    0.0001    0.0000    0.0004   -0.0001   -0.0014   -0.0013
   120 H14    1s        -0.0000    0.0001    0.0001    0.0002   -0.0002    0.0002    0.0167   -0.0015    0.1344    0.1146
   121 H14    *s         0.0000   -0.0000   -0.0003    0.0001   -0.0001    0.0012   -0.0077    0.0015   -0.0632   -0.0504
   122 H14    *px        0.0001    0.0000   -0.0001    0.0000   -0.0000   -0.0001    0.0013   -0.0003    0.0042    0.0038
   123 H14    *py       -0.0000    0.0000   -0.0000    0.0001    0.0000    0.0002   -0.0005    0.0002   -0.0041   -0.0044
   124 H14    *pz        0.0000    0.0000   -0.0000   -0.0000    0.0001   -0.0004    0.0013    0.0001    0.0096    0.0076
   125 H15    1s         0.0001   -0.0000    0.0004    0.0002   -0.0000    0.0002    0.0190   -0.0004    0.1166    0.0960
   126 H15    *s        -0.0000    0.0003   -0.0002    0.0001    0.0004    0.0011   -0.0106    0.0111   -0.0515   -0.0394
   127 H15    *px       -0.0001   -0.0000   -0.0000    0.0000   -0.0000   -0.0001    0.0014    0.0004    0.0052    0.0043
   128 H15    *py       -0.0000   -0.0000   -0.0000    0.0001    0.0000    0.0002   -0.0012   -0.0002   -0.0047   -0.0048
   129 H15    *pz       -0.0000   -0.0000    0.0000   -0.0000    0.0000    0.0003   -0.0010    0.0000   -0.0084   -0.0063
   130 H16    1s        -0.0000    0.0001    0.0001   -0.0002   -0.0002   -0.0002    0.0167   -0.0017    0.1369   -0.2503
   131 H16    *s         0.0000   -0.0001   -0.0003   -0.0012   -0.0001   -0.0001   -0.0077    0.0014   -0.0641    0.1091
   132 H16    *px       -0.0000   -0.0000    0.0000    0.0002   -0.0000    0.0001    0.0002   -0.0001    0.0035   -0.0063
   133 H16    *py       -0.0001    0.0000    0.0001   -0.0001    0.0000    0.0000   -0.0013    0.0003   -0.0047    0.0089
   134 H16    *pz        0.0000    0.0000   -0.0000    0.0004    0.0001   -0.0000    0.0014    0.0001    0.0098   -0.0177
 
 
      Orbital                11        12        13        14        15        16        17        18        19        20
      Energy            -0.9486   -0.7621   -0.6444   -0.6183   -0.6146   -0.5565   -0.5536   -0.5435   -0.5242   -0.5073
      Occ. No.           2.0000    2.0000    2.0000    2.0000    2.0000    2.0000    2.0000    2.0000    2.0000    2.0000
 
     1 C1     1s         0.0001   -0.0007    0.0031   -0.0001    0.0006    0.0002   -0.0002    0.0021    0.0002    0.0036
     2 C1     2s         0.0108   -0.5487   -0.0973   -0.0020    0.0124   -0.0260    0.0074   -0.0929   -0.0032   -0.0234
     3 C1     *s        -0.0010    0.1062   -0.0366   -0.0003   -0.0007   -0.0097    0.0021   -0.0451   -0.0034   -0.0528
     4 C1     2px       -0.2197   -0.0352    0.1488    0.2992   -0.1662    0.0396    0.0895    0.1027    0.0058    0.0689
     5 C1     *px        0.0121    0.0233   -0.0285   -0.0217    0.0154   -0.0145    0.0009   -0.0345    0.0004   -0.0323
     6 C1     2py        0.0520    0.0385   -0.1854    0.2177    0.2538   -0.1012    0.0421   -0.0920   -0.0210   -0.0723
     7 C1     *py       -0.0083   -0.0318    0.0386   -0.0173   -0.0250    0.0222    0.0003    0.0511    0.0071    0.0288
     8 C1     2pz        0.1211   -0.0603    0.2873   -0.0189    0.2282   -0.0312   -0.0467    0.1677    0.0049    0.2532
     9 C1     *pz       -0.0096    0.0404   -0.0445    0.0021   -0.0240    0.0005    0.0051   -0.0382   -0.0028   -0.0861
    10 C1     *d2-       0.0084    0.0036   -0.0051   -0.0005   -0.0048   -0.0246   -0.0059   -0.0084   -0.0009   -0.0072
    11 C1     *d1-      -0.0117    0.0066   -0.0089   -0.0033    0.0001   -0.0093    0.0166   -0.0191   -0.0004   -0.0218
    12 C1     *d0       -0.0123   -0.0044    0.0051    0.0002   -0.0017   -0.0041   -0.0069    0.0239    0.0015    0.0136
    13 C1     *d1+       0.0074   -0.0058    0.0078   -0.0043   -0.0001   -0.0027    0.0162    0.0227    0.0014    0.0180
    14 C1     *d2+       0.0168    0.0008   -0.0008    0.0041   -0.0010   -0.0037   -0.0061   -0.0017    0.0001   -0.0006
    15 C2     1s         0.0012   -0.0091   -0.0011    0.0032    0.0018   -0.0003    0.0007    0.0008   -0.0000   -0.0007
    16 C2     2s        -0.0411    0.1803    0.0541   -0.0493   -0.0241   -0.0141    0.0133   -0.0142   -0.0010   -0.0138
    17 C2     *s         0.0160   -0.0143    0.0025   -0.0175   -0.0042   -0.0074   -0.0048   -0.0200    0.0003    0.0204
    18 C2     2px       -0.0359    0.0579    0.1778    0.1416   -0.2844   -0.2718    0.0239   -0.0097   -0.3100   -0.0222
    19 C2     *px        0.0154   -0.0223   -0.0383   -0.0329    0.0558    0.0396   -0.0081    0.0120    0.0414    0.0022
    20 C2     2py        0.0106    0.2190    0.1335   -0.3084   -0.0674    0.1641   -0.0571    0.1171    0.1268    0.0738
    21 C2     *py       -0.0079   -0.0625   -0.0257    0.0652    0.0154   -0.0287    0.0185   -0.0249   -0.0141   -0.0103
    22 C2     2pz        0.0203   -0.0253    0.1943   -0.0249    0.2382   -0.3073    0.3420   -0.0540    0.1905   -0.1689
    23 C2     *pz       -0.0086    0.0052   -0.0513   -0.0038   -0.0528    0.0461   -0.0461    0.0054   -0.0239    0.0366
    24 C2     *d2-       0.0028   -0.0071   -0.0078    0.0048    0.0059   -0.0061   -0.0008   -0.0053   -0.0040   -0.0035
    25 C2     *d1-      -0.0018    0.0013    0.0007   -0.0011    0.0019   -0.0073    0.0113   -0.0051    0.0071   -0.0115
    26 C2     *d0        0.0004    0.0091   -0.0004   -0.0126    0.0001    0.0129   -0.0058    0.0048    0.0095    0.0053
    27 C2     *d1+      -0.0010    0.0019   -0.0066    0.0007   -0.0079    0.0072   -0.0074    0.0010   -0.0065    0.0026
    28 C2     *d2+       0.0016    0.0118    0.0081   -0.0065   -0.0084   -0.0066   -0.0019    0.0003   -0.0087   -0.0002
    29 H3     1s         0.0067    0.1552    0.1704   -0.2482    0.2315   -0.0529    0.2321    0.0144    0.3439   -0.1046
    30 H3     *s        -0.0058   -0.0578   -0.0488    0.0809   -0.0760    0.0248   -0.0733    0.0120   -0.0960    0.0036
    31 H3     *px       -0.0002    0.0049    0.0074   -0.0024   -0.0001   -0.0067    0.0052    0.0005    0.0010   -0.0025
    32 H3     *py        0.0016   -0.0018   -0.0040    0.0022   -0.0072    0.0044   -0.0078    0.0013   -0.0069    0.0047
    33 H3     *pz       -0.0002   -0.0092   -0.0039    0.0117   -0.0059   -0.0037   -0.0026   -0.0024   -0.0111    0.0011
    34 H4     1s        -0.0418    0.1531    0.2108    0.0967   -0.2842   -0.2901    0.0405   -0.0214   -0.3157   -0.0366
    35 H4     *s         0.0216   -0.0470   -0.0686   -0.0299    0.0876    0.0805   -0.0122   -0.0041    0.0817    0.0073
    36 H4     *px        0.0019   -0.0099   -0.0091   -0.0019    0.0114    0.0098   -0.0019    0.0004    0.0108    0.0011
    37 H4     *py       -0.0012    0.0030    0.0010   -0.0053   -0.0004    0.0046   -0.0010    0.0030    0.0032    0.0011
    38 H4     *pz        0.0008   -0.0012    0.0038   -0.0006    0.0059   -0.0057    0.0067   -0.0006    0.0047   -0.0036
    39 O1     1s         0.0001   -0.0005    0.0021    0.0000   -0.0000   -0.0005   -0.0002   -0.0005   -0.0000   -0.0011
    40 O1     2s         0.0194    0.2384   -0.1291   -0.0033   -0.0055    0.0125   -0.0061    0.0431   -0.0025   -0.0938
    41 O1     *s         0.0027    0.0584   -0.0707   -0.0018    0.0001    0.0075   -0.0004    0.0195   -0.0004   -0.0188
    42 O1     2px       -0.0265    0.1570   -0.1664    0.0575   -0.0386   -0.0096    0.0547   -0.1326   -0.0094   -0.1896
    43 O1     *px        0.0138   -0.0012   -0.0028   -0.0190    0.0098   -0.0040   -0.0112   -0.0068   -0.0011   -0.0118
    44 O1     2py        0.0059   -0.1720    0.1779    0.0450    0.0565   -0.0176   -0.0018    0.1524    0.0099    0.2178
    45 O1     *py       -0.0021    0.0040    0.0020   -0.0142   -0.0148    0.0108   -0.0042    0.0031    0.0006    0.0110
    46 O1     2pz        0.0213    0.3000   -0.3291   -0.0068    0.0294   -0.0812    0.0100   -0.2631   -0.0187   -0.2911
    47 O1     *pz       -0.0066   -0.0050   -0.0020    0.0021   -0.0133    0.0039    0.0035   -0.0098   -0.0009   -0.0280
    48 O1     *d2-      -0.0011    0.0049   -0.0037    0.0007   -0.0031   -0.0002    0.0008   -0.0025   -0.0002   -0.0046
    49 O1     *d1-       0.0000    0.0095   -0.0074   -0.0031   -0.0018    0.0004    0.0005   -0.0062   -0.0004   -0.0066
    50 O1     *d0       -0.0026   -0.0054    0.0043    0.0005   -0.0047    0.0025    0.0010    0.0009    0.0004    0.0045
    51 O1     *d1+       0.0015   -0.0077    0.0060   -0.0037    0.0009    0.0000   -0.0014    0.0043    0.0002    0.0060
    52 O1     *d2+       0.0010    0.0007   -0.0005   -0.0030   -0.0009    0.0007   -0.0019   -0.0006    0.0003   -0.0010
    53 O2     1s         0.0003    0.0002   -0.0003   -0.0001    0.0002    0.0000   -0.0000   -0.0001   -0.0001   -0.0013
    54 O2     2s        -0.0112   -0.0360    0.0360    0.0002   -0.0189    0.0438   -0.0058    0.1091   -0.0017   -0.1154
    55 O2     *s        -0.0022   -0.0099    0.0145    0.0008   -0.0047    0.0150   -0.0025    0.0430   -0.0002   -0.0382
    56 O2     2px        0.0013    0.0269   -0.0711   -0.0007    0.0157   -0.1218    0.0230   -0.3119    0.0125    0.4557
    57 O2     *px       -0.0001   -0.0021    0.0015   -0.0001    0.0011   -0.0043    0.0002   -0.0093    0.0004    0.0242
    58 O2     2py       -0.0012   -0.0206    0.0537   -0.0019   -0.0108    0.0891   -0.0141    0.2333   -0.0056   -0.3374
    59 O2     *py        0.0004    0.0008   -0.0003   -0.0007   -0.0004    0.0028   -0.0008    0.0064   -0.0007   -0.0157
    60 O2     2pz       -0.0011   -0.0065    0.0094   -0.0001   -0.0056    0.0181   -0.0038    0.0523   -0.0012   -0.0647
    61 O2     *pz        0.0025   -0.0019    0.0031   -0.0003    0.0044   -0.0020   -0.0010   -0.0004   -0.0001    0.0002
    62 O2     *d2-       0.0000   -0.0009    0.0022   -0.0000   -0.0003    0.0030   -0.0006    0.0081   -0.0002   -0.0110
    63 O2     *d1-       0.0000    0.0005   -0.0008    0.0000   -0.0001   -0.0006   -0.0001   -0.0019   -0.0001    0.0019
    64 O2     *d0        0.0001   -0.0003    0.0012   -0.0000    0.0001    0.0017   -0.0004    0.0046   -0.0002   -0.0067
    65 O2     *d1+       0.0001   -0.0005    0.0008    0.0000    0.0000    0.0010   -0.0004    0.0023   -0.0002   -0.0028
    66 O2     *d2+       0.0000    0.0001   -0.0005    0.0000    0.0001   -0.0009    0.0001   -0.0023    0.0000    0.0035
    67 H7     1s         0.0014    0.0506   -0.0970    0.0004    0.0123   -0.1187    0.0230   -0.3213    0.0076    0.3922
    68 H7     *s        -0.0016   -0.0026    0.0078   -0.0014   -0.0058    0.0238   -0.0032    0.0528   -0.0021   -0.0861
    69 H7     *px       -0.0001   -0.0010    0.0031   -0.0000   -0.0006    0.0049   -0.0008    0.0132   -0.0004   -0.0189
    70 H7     *py        0.0000    0.0002   -0.0016   -0.0001    0.0006   -0.0043    0.0009   -0.0102    0.0004    0.0167
    71 H7     *pz        0.0000   -0.0019    0.0013    0.0002    0.0004   -0.0020    0.0001   -0.0039    0.0003    0.0112
    72 C8     1s         0.0165   -0.0091   -0.0003    0.0002   -0.0031    0.0004    0.0003   -0.0004   -0.0000    0.0001
    73 C8     2s        -0.5182    0.1785    0.0402   -0.0031    0.0608    0.0111    0.0067   -0.0116   -0.0000   -0.0277
    74 C8     *s         0.1510   -0.0267    0.0149   -0.0010    0.0100    0.0124    0.0000    0.0217    0.0012   -0.0043
    75 C8     2px       -0.0252    0.0822    0.1647    0.3054    0.1136    0.2089   -0.0511   -0.1611    0.2880    0.0229
    76 C8     *px        0.0092   -0.0231   -0.0413   -0.0641   -0.0175   -0.0281    0.0015    0.0196   -0.0387   -0.0008
    77 C8     2py       -0.0076   -0.1126   -0.2117    0.2479   -0.1199   -0.1396   -0.1937    0.1316    0.2532   -0.0535
    78 C8     *py        0.0073    0.0327    0.0515   -0.0510    0.0176    0.0215    0.0218   -0.0174   -0.0333    0.0044
    79 C8     2pz       -0.0039   -0.1882    0.0861    0.0031   -0.2676    0.2948    0.1713   -0.2975   -0.0194   -0.1540
    80 C8     *pz        0.0120    0.0543   -0.0293   -0.0013    0.0580   -0.0408   -0.0265    0.0553    0.0030    0.0187
    81 C8     *d2-      -0.0001    0.0045    0.0101   -0.0017    0.0039    0.0039    0.0038   -0.0024   -0.0038    0.0042
    82 C8     *d1-      -0.0021   -0.0124   -0.0009    0.0054   -0.0118    0.0070    0.0052   -0.0086    0.0018   -0.0062
    83 C8     *d0       -0.0008   -0.0055   -0.0046   -0.0004   -0.0046   -0.0094   -0.0058    0.0143    0.0009    0.0052
    84 C8     *d1+      -0.0005    0.0094   -0.0003    0.0050    0.0095   -0.0072   -0.0025    0.0082    0.0017    0.0051
    85 C8     *d2+       0.0010    0.0015    0.0023    0.0085    0.0019    0.0036   -0.0072   -0.0016    0.0165    0.0006
    86 H9     1s        -0.2084    0.1565    0.1779   -0.3128    0.0948    0.1029    0.2209   -0.1201   -0.3434    0.0175
    87 H9     *s         0.0883   -0.0502   -0.0583    0.0966   -0.0293   -0.0336   -0.0641    0.0274    0.0891   -0.0082
    88 H9     *px       -0.0050    0.0042    0.0058    0.0013    0.0031    0.0059    0.0021   -0.0048    0.0009    0.0008
    89 H9     *py       -0.0166    0.0091    0.0058   -0.0126    0.0043    0.0025    0.0074   -0.0033   -0.0127    0.0002
    90 H9     *pz        0.0007   -0.0043    0.0021    0.0019   -0.0048    0.0053    0.0030   -0.0054    0.0011   -0.0028
    91 H10    1s        -0.2364    0.1564    0.1679    0.3090    0.1303    0.2136   -0.0577   -0.1775    0.3207   -0.0014
    92 H10    *s         0.1034   -0.0502   -0.0546   -0.0947   -0.0401   -0.0647    0.0159    0.0437   -0.0833   -0.0043
    93 H10    *px        0.0179   -0.0100   -0.0064   -0.0117   -0.0065   -0.0072    0.0020    0.0060   -0.0115    0.0001
    94 H10    *py        0.0016   -0.0022   -0.0044    0.0040   -0.0019   -0.0036   -0.0038    0.0030    0.0042   -0.0010
    95 H10    *pz        0.0014   -0.0036    0.0027   -0.0008   -0.0046    0.0058    0.0030   -0.0059   -0.0009   -0.0027
    96 H11    1s        -0.2109    0.1764   -0.1793   -0.0143    0.1874   -0.3848   -0.2115    0.3923    0.0168    0.1210
    97 H11    *s         0.0919   -0.0557    0.0453    0.0035   -0.0475    0.1034    0.0547   -0.0928   -0.0040   -0.0190
    98 H11    *px       -0.0062    0.0049   -0.0003    0.0058    0.0053   -0.0025   -0.0047    0.0025    0.0064    0.0016
    99 H11    *py        0.0060   -0.0058   -0.0001    0.0052   -0.0057    0.0047   -0.0002   -0.0036    0.0051   -0.0022
   100 H11    *pz       -0.0152    0.0077   -0.0069   -0.0007    0.0054   -0.0127   -0.0068    0.0126    0.0003    0.0019
   101 C12    1s        -0.0171   -0.0092   -0.0009   -0.0035    0.0015    0.0002   -0.0012    0.0003   -0.0000   -0.0006
   102 C12    2s         0.5535    0.1858    0.0526    0.0550   -0.0196   -0.0053   -0.0174   -0.0218   -0.0024   -0.0103
   103 C12    *s        -0.1682   -0.0185    0.0043    0.0196   -0.0033   -0.0089    0.0070   -0.0133   -0.0001    0.0198
   104 C12    2px        0.0008   -0.2259   -0.1455   -0.2822    0.1063   -0.0617   -0.0955   -0.1437    0.0221   -0.0797
   105 C12    *px       -0.0144    0.0643    0.0290    0.0606   -0.0244    0.0114    0.0229    0.0362   -0.0002    0.0037
   106 C12    2py        0.0114   -0.0099   -0.1410    0.1650    0.2858    0.2116    0.1829    0.0975   -0.3322    0.0494
   107 C12    *py       -0.0033    0.0089    0.0313   -0.0374   -0.0559   -0.0306   -0.0286   -0.0308    0.0429   -0.0011
   108 C12    2pz        0.0173   -0.0143    0.2054    0.0196    0.2140   -0.0332   -0.4298   -0.1843   -0.1889   -0.1353
   109 C12    *pz       -0.0125    0.0020   -0.0556    0.0049   -0.0477    0.0083    0.0643    0.0245    0.0249    0.0314
   110 C12    *d2-       0.0018   -0.0015   -0.0034   -0.0016    0.0023   -0.0078   -0.0032   -0.0055    0.0058   -0.0036
   111 C12    *d1-       0.0003   -0.0014    0.0064    0.0007    0.0080   -0.0001   -0.0113   -0.0051   -0.0089   -0.0037
   112 C12    *d0       -0.0012    0.0092   -0.0013    0.0121    0.0010    0.0068    0.0107    0.0080   -0.0085    0.0053
   113 C12    *d1+       0.0012   -0.0001    0.0015    0.0007   -0.0004   -0.0003    0.0098    0.0089    0.0051    0.0106
   114 C12    *d2+       0.0015   -0.0137   -0.0101   -0.0093    0.0086    0.0031    0.0023   -0.0011   -0.0063   -0.0008
   115 H13    1s         0.2250    0.1550    0.2084   -0.0523   -0.2878   -0.1990   -0.1961   -0.0923    0.3140   -0.0476
   116 H13    *s        -0.0951   -0.0483   -0.0684    0.0169    0.0899    0.0543    0.0586    0.0160   -0.0835    0.0111
   117 H13    *px        0.0050   -0.0009    0.0014   -0.0051   -0.0023   -0.0046   -0.0047   -0.0046    0.0047   -0.0014
   118 H13    *py        0.0177    0.0105    0.0090    0.0010   -0.0109   -0.0056   -0.0066   -0.0022    0.0099   -0.0013
   119 H13    *pz       -0.0009   -0.0016    0.0035    0.0004    0.0063    0.0001   -0.0079   -0.0029   -0.0055   -0.0026
   120 H14    1s         0.2241    0.1769   -0.1364    0.1836   -0.1281    0.1360    0.4806    0.2691    0.0311    0.1891
   121 H14    *s        -0.0981   -0.0595    0.0359   -0.0467    0.0336   -0.0332   -0.1271   -0.0574   -0.0070   -0.0368
   122 H14    *px        0.0074    0.0015   -0.0051   -0.0001   -0.0013    0.0019    0.0088    0.0040    0.0012    0.0032
   123 H14    *py       -0.0064   -0.0047    0.0003   -0.0006    0.0085    0.0020   -0.0058   -0.0024   -0.0077   -0.0020
   124 H14    *pz        0.0159    0.0099   -0.0025    0.0095   -0.0021    0.0056    0.0132    0.0077   -0.0027    0.0039
   125 H15    1s         0.2437    0.1560    0.1625    0.2259    0.2454    0.1041   -0.2106   -0.0492   -0.3361   -0.0689
   126 H15    *s        -0.1090   -0.0590   -0.0456   -0.0741   -0.0823   -0.0220    0.0660    0.0395    0.0945   -0.0179
   127 H15    *px        0.0063    0.0002    0.0022    0.0004    0.0065    0.0015   -0.0063   -0.0032   -0.0063   -0.0037
   128 H15    *py       -0.0099   -0.0054   -0.0080   -0.0033   -0.0016    0.0014    0.0096    0.0026    0.0026    0.0030
   129 H15    *pz       -0.0152   -0.0093   -0.0034   -0.0110   -0.0073   -0.0049    0.0006   -0.0023    0.0111    0.0002
   130 H16    1s        -0.0186    0.1746   -0.1306   -0.1799   -0.1574    0.4296   -0.3348    0.1147   -0.0144    0.2085
   131 H16    *s         0.0082   -0.0588    0.0352    0.0457    0.0421   -0.1128    0.0879   -0.0187    0.0044   -0.0395
   132 H16    *px       -0.0014    0.0046    0.0008   -0.0000   -0.0084    0.0010   -0.0049    0.0006   -0.0070    0.0021
   133 H16    *py        0.0009   -0.0020    0.0049   -0.0005    0.0032   -0.0072    0.0071   -0.0011    0.0030   -0.0040
   134 H16    *pz       -0.0008    0.0096   -0.0024   -0.0095   -0.0031    0.0136   -0.0083    0.0034    0.0033    0.0045
 
 
      Orbital                21        22        23        24        25        26        27
      Energy            -0.4931   -0.4914   -0.3430    0.0005    0.0002    0.0119    0.1496
      Occ. No.           2.0000    2.0000    1.5194    1.5774    1.4806    1.4227    0.0000
 
     1 C1     1s        -0.0001   -0.0001    0.0002    0.0001   -0.0000    0.0012    0.0060
     2 C1     2s        -0.0026    0.0005    0.0011   -0.0010    0.0036    0.0102    0.0687
     3 C1     *s         0.0002   -0.0018   -0.0073    0.0079    0.0049    0.0088   -0.0331
     4 C1     2px        0.3874   -0.2326   -0.0493   -0.0419   -0.0482    0.0359    0.0414
     5 C1     *px       -0.0595    0.0395   -0.0118    0.0080    0.0327   -0.0016   -0.0043
     6 C1     2py        0.2953    0.3193   -0.0458    0.0482   -0.0461   -0.0409   -0.0533
     7 C1     *py       -0.0461   -0.0506   -0.0038   -0.0119    0.0174   -0.0096   -0.0451
     8 C1     2pz       -0.0192    0.2581    0.0006    0.0459    0.0057   -0.0456    0.1006
     9 C1     *pz        0.0041   -0.0294    0.0040   -0.0231   -0.0070   -0.0187   -0.1227
    10 C1     *d2-       0.0070    0.0218   -0.0039   -0.0049   -0.0037    0.0071    0.0005
    11 C1     *d1-       0.0034   -0.0182    0.0103   -0.0080    0.0113    0.0106    0.0042
    12 C1     *d0        0.0002   -0.0154    0.0005   -0.0211    0.0004    0.0207   -0.0004
    13 C1     *d1+       0.0057    0.0133    0.0110    0.0063    0.0129   -0.0089   -0.0057
    14 C1     *d2+      -0.0326    0.0046    0.0206    0.0005    0.0193    0.0001   -0.0023
    15 C2     1s         0.0001    0.0005    0.0006    0.0000    0.0006   -0.0004    0.0158
    16 C2     2s         0.0804    0.0452   -0.0610    0.0327   -0.0495   -0.0217   -0.0325
    17 C2     *s         0.0232    0.0056   -0.0219    0.0132   -0.0155    0.0094   -0.3415
    18 C2     2px       -0.3040    0.0766    0.0091   -0.0165    0.0037    0.0081   -0.0131
    19 C2     *px        0.0326   -0.0032    0.0052   -0.0087   -0.0104    0.0003   -0.0242
    20 C2     2py       -0.2957   -0.2590    0.0842   -0.0375    0.0914    0.0421   -0.0515
    21 C2     *py        0.0367    0.0244   -0.0319    0.0129    0.0126    0.0001   -0.1042
    22 C2     2pz       -0.0438   -0.1777   -0.0353    0.0258   -0.0122   -0.0021    0.0050
    23 C2     *pz        0.0035    0.0105    0.0127   -0.0050    0.0126    0.0055    0.0633
    24 C2     *d2-       0.0015    0.0142    0.0004    0.0016   -0.0004   -0.0014   -0.0011
    25 C2     *d1-      -0.0009   -0.0144   -0.0005   -0.0015    0.0004    0.0011   -0.0079
    26 C2     *d0       -0.0002   -0.0093    0.0014   -0.0014    0.0034    0.0016    0.0017
    27 C2     *d1+       0.0016    0.0054    0.0020   -0.0010    0.0014    0.0006   -0.0008
    28 C2     *d2+      -0.0230    0.0035    0.0015    0.0006    0.0029    0.0003   -0.0031
    29 H3     1s        -0.0357   -0.3226   -0.0174    0.0092    0.0072    0.0143   -0.0109
    30 H3     *s         0.0084    0.0756    0.0406   -0.0333   -0.0315   -0.0037    0.1381
    31 H3     *px       -0.0071   -0.0029    0.0000    0.0004   -0.0003    0.0004    0.0004
    32 H3     *py       -0.0043    0.0045    0.0006    0.0013    0.0025    0.0002   -0.0025
    33 H3     *pz        0.0012    0.0081    0.0000   -0.0018   -0.0006   -0.0012    0.0004
    34 H4     1s        -0.3297    0.0965   -0.0127    0.0068   -0.0090   -0.0091   -0.0148
    35 H4     *s         0.0620   -0.0184    0.0241    0.0070    0.0255   -0.0025    0.1882
    36 H4     *px        0.0103   -0.0020    0.0004   -0.0006    0.0005    0.0007   -0.0036
    37 H4     *py       -0.0030   -0.0062    0.0001   -0.0018   -0.0009    0.0010   -0.0011
    38 H4     *pz        0.0000   -0.0038   -0.0002    0.0011    0.0008   -0.0000    0.0006
    39 O1     1s         0.0000   -0.0001   -0.0005    0.0015   -0.0004    0.0002    0.0036
    40 O1     2s        -0.0005    0.0197   -0.0074    0.0286   -0.0086    0.0166   -0.1434
    41 O1     *s        -0.0007    0.0068    0.0024   -0.0015   -0.0008    0.0049   -0.1501
    42 O1     2px        0.0597   -0.0339    0.5001    0.3432    0.5072   -0.3535   -0.0255
    43 O1     *px       -0.0124    0.0081    0.0286    0.0146    0.0204   -0.0150    0.0128
    44 O1     2py        0.0488    0.0463    0.4418   -0.3884    0.4520    0.4003   -0.0303
    45 O1     *py       -0.0096   -0.0104    0.0250   -0.0185    0.0176    0.0197   -0.0327
    46 O1     2pz       -0.0069    0.0521   -0.0029   -0.4054   -0.0070    0.4463   -0.0879
    47 O1     *pz        0.0014   -0.0056   -0.0010   -0.0298    0.0036    0.0164   -0.0911
    48 O1     *d2-       0.0011   -0.0027    0.0010    0.0047    0.0009   -0.0042    0.0005
    49 O1     *d1-      -0.0034   -0.0018   -0.0042   -0.0003   -0.0049   -0.0022   -0.0026
    50 O1     *d0        0.0004   -0.0076   -0.0001    0.0058    0.0002   -0.0073    0.0064
    51 O1     *d1+      -0.0040    0.0008   -0.0046   -0.0004   -0.0052    0.0024    0.0054
    52 O1     *d2+      -0.0051   -0.0006   -0.0056    0.0009   -0.0049   -0.0009    0.0005
    53 O2     1s        -0.0001    0.0004    0.0003    0.0016    0.0006    0.0001    0.0200
    54 O2     2s         0.0009    0.0428   -0.0018    0.0296    0.0029   -0.0141   -0.1430
    55 O2     *s         0.0012    0.0158   -0.0023   -0.0114   -0.0040   -0.0024   -0.3593
    56 O2     2px       -0.0043   -0.1219    0.3695    0.1920   -0.4023    0.0977   -0.3594
    57 O2     *px       -0.0001   -0.0056    0.0152    0.0101   -0.0170   -0.0019   -0.1835
    58 O2     2py        0.0016    0.0910    0.5513    0.0116   -0.5431    0.0912    0.2606
    59 O2     *py       -0.0005    0.0042    0.0261   -0.0009   -0.0187    0.0070    0.1425
    60 O2     2pz        0.0004    0.0272   -0.1225    0.6357    0.1285    0.6931    0.0598
    61 O2     *pz       -0.0001    0.0017   -0.0049    0.0271    0.0054    0.0251    0.0576
    62 O2     *d2-       0.0001    0.0031    0.0021   -0.0011   -0.0017    0.0009   -0.0017
    63 O2     *d1-      -0.0000   -0.0005   -0.0006   -0.0042   -0.0000   -0.0030   -0.0011
    64 O2     *d0        0.0001    0.0018    0.0005   -0.0031   -0.0001   -0.0001   -0.0021
    65 O2     *d1+       0.0000    0.0008   -0.0019    0.0049    0.0013    0.0043    0.0008
    66 O2     *d2+      -0.0000   -0.0010    0.0059    0.0017   -0.0055    0.0007    0.0008
    67 H7     1s        -0.0037   -0.1164    0.0028   -0.0104    0.0016   -0.0320    0.4210
    68 H7     *s        -0.0008    0.0169    0.0016    0.0323    0.0026    0.0227    0.7655
    69 H7     *px        0.0001    0.0050    0.0085    0.0010   -0.0040    0.0055    0.0124
    70 H7     *py       -0.0002   -0.0040    0.0100    0.0018   -0.0074   -0.0026   -0.0060
    71 H7     *pz        0.0001   -0.0016   -0.0034    0.0121    0.0009    0.0054    0.0076
    72 C8     1s        -0.0000    0.0002   -0.0000    0.0016    0.0001    0.0004    0.0220
    73 C8     2s         0.0021   -0.0930    0.0034   -0.0658    0.0042    0.0782   -0.0167
    74 C8     *s         0.0012   -0.0284    0.0049   -0.0392   -0.0053    0.0025   -0.4400
    75 C8     2px       -0.2134    0.2488   -0.0142    0.0199   -0.0144   -0.0208    0.0065
    76 C8     *px        0.0199   -0.0282   -0.0056    0.0036   -0.0069    0.0014    0.0442
    77 C8     2py       -0.1575   -0.3198   -0.0090   -0.0316   -0.0096    0.0329   -0.0086
    78 C8     *py        0.0149    0.0356   -0.0037   -0.0053   -0.0063   -0.0010   -0.0477
    79 C8     2pz        0.0108   -0.2153    0.0059   -0.1006    0.0048    0.1039    0.0263
    80 C8     *pz       -0.0013    0.0293    0.0007    0.0101   -0.0038   -0.0268    0.0330
    81 C8     *d2-       0.0049    0.0098   -0.0003   -0.0007   -0.0004    0.0013    0.0049
    82 C8     *d1-       0.0038   -0.0097   -0.0002   -0.0047   -0.0007    0.0041   -0.0035
    83 C8     *d0        0.0001   -0.0149    0.0001   -0.0004    0.0001   -0.0004    0.0058
    84 C8     *d1+       0.0056    0.0065   -0.0009    0.0036   -0.0012   -0.0032    0.0028
    85 C8     *d2+      -0.0222    0.0025    0.0011    0.0001    0.0019   -0.0001    0.0007
    86 H9     1s         0.2511    0.2087    0.0043   -0.0153    0.0053    0.0191   -0.0051
    87 H9     *s        -0.0469   -0.0398   -0.0175    0.0176   -0.0196   -0.0184    0.0909
    88 H9     *px       -0.0025    0.0072    0.0002   -0.0000    0.0002    0.0000   -0.0006
    89 H9     *py        0.0085    0.0045   -0.0004   -0.0009   -0.0001    0.0012    0.0020
    90 H9     *pz        0.0008   -0.0041   -0.0020   -0.0001   -0.0018    0.0006    0.0021
    91 H10    1s        -0.2630    0.2102   -0.0027   -0.0159   -0.0032    0.0196   -0.0032
    92 H10    *s         0.0490   -0.0401    0.0153    0.0200    0.0172   -0.0214    0.0951
    93 H10    *px        0.0080   -0.0062   -0.0004    0.0009   -0.0001   -0.0012   -0.0020
    94 H10    *py       -0.0041   -0.0062    0.0004   -0.0001    0.0002    0.0002    0.0009
    95 H10    *pz       -0.0009   -0.0036    0.0021    0.0001    0.0018    0.0005    0.0016
    96 H11    1s         0.0045   -0.0573   -0.0034    0.0625   -0.0022   -0.0634    0.0347
    97 H11    *s        -0.0013    0.0236   -0.0002    0.0015   -0.0008   -0.0081    0.2420
    98 H11    *px       -0.0043    0.0038   -0.0003    0.0018   -0.0003   -0.0019   -0.0003
    99 H11    *py       -0.0033   -0.0050   -0.0000   -0.0023   -0.0001    0.0024    0.0004
   100 H11    *pz        0.0004   -0.0062    0.0000   -0.0005    0.0001    0.0006    0.0012
   101 C12    1s        -0.0001    0.0005   -0.0001   -0.0001   -0.0010   -0.0000    0.0168
   102 C12    2s        -0.0802    0.0389    0.0547    0.0409    0.0470   -0.0245   -0.0337
   103 C12    *s        -0.0228    0.0044    0.0111    0.0178    0.0273    0.0018   -0.3727
   104 C12    2px       -0.3652    0.2132    0.0805    0.0499    0.0829   -0.0534    0.0347
   105 C12    *px        0.0447   -0.0184   -0.0229   -0.0153    0.0056   -0.0048    0.0838
   106 C12    2py       -0.2270   -0.1642   -0.0117    0.0089   -0.0122    0.0036   -0.0121
   107 C12    *py        0.0234    0.0098    0.0043    0.0137   -0.0058    0.0033   -0.0336
   108 C12    2pz        0.0785   -0.2020    0.0223    0.0303    0.0125    0.0019    0.0028
   109 C12    *pz       -0.0085    0.0136   -0.0154   -0.0059   -0.0077    0.0059    0.0448
   110 C12    *d2-       0.0075    0.0150   -0.0010    0.0016   -0.0009   -0.0010   -0.0009
   111 C12    *d1-       0.0012   -0.0102    0.0016    0.0009    0.0016   -0.0003   -0.0011
   112 C12    *d0        0.0007   -0.0103   -0.0018   -0.0019   -0.0030    0.0021   -0.0013
   113 C12    *d1+      -0.0001    0.0116   -0.0002    0.0013    0.0005   -0.0011    0.0081
   114 C12    *d2+      -0.0218    0.0026    0.0015    0.0003    0.0026   -0.0014    0.0016
   115 H13    1s         0.3282    0.1252    0.0123    0.0085    0.0056   -0.0091   -0.0091
   116 H13    *s        -0.0639   -0.0254   -0.0266    0.0040   -0.0215    0.0003    0.1145
   117 H13    *px       -0.0010    0.0064   -0.0003    0.0020   -0.0008   -0.0010    0.0009
   118 H13    *py        0.0108    0.0014    0.0004    0.0003    0.0006   -0.0005    0.0013
   119 H13    *pz       -0.0002   -0.0047    0.0001    0.0011   -0.0007    0.0002   -0.0001
   120 H14    1s        -0.0525    0.0537   -0.0467   -0.0354   -0.0377    0.0127    0.0360
   121 H14    *s         0.0190   -0.0153   -0.0064   -0.0031    0.0008    0.0006    0.2292
   122 H14    *px       -0.0078    0.0051    0.0019    0.0008    0.0019   -0.0014    0.0002
   123 H14    *py       -0.0036   -0.0043    0.0008    0.0008    0.0006   -0.0003    0.0000
   124 H14    *pz       -0.0007   -0.0017   -0.0019   -0.0012   -0.0012    0.0004    0.0007
   125 H15    1s         0.0528   -0.3462    0.0111    0.0139   -0.0013    0.0176   -0.0071
   126 H15    *s        -0.0116    0.0872   -0.0181   -0.0424    0.0137   -0.0108    0.1868
   127 H15    *px       -0.0056   -0.0040    0.0014   -0.0017    0.0017   -0.0007    0.0032
   128 H15    *py       -0.0063    0.0039   -0.0002   -0.0002   -0.0008   -0.0003   -0.0010
   129 H15    *pz       -0.0012    0.0090    0.0003   -0.0023    0.0001   -0.0016   -0.0014
   130 H16    1s         0.0504    0.0471    0.0547   -0.0274    0.0378    0.0099    0.0381
   131 H16    *s        -0.0185   -0.0144    0.0056   -0.0027    0.0003    0.0012    0.2278
   132 H16    *px       -0.0053    0.0023    0.0014   -0.0009    0.0011    0.0004    0.0001
   133 H16    *py       -0.0065   -0.0060    0.0019   -0.0005    0.0018    0.0012   -0.0007
   134 H16    *pz        0.0013   -0.0016    0.0021   -0.0010    0.0010    0.0002   -0.0002
--
 
      Von Neumann Entropy (Root   1) =  0.97325
 

      Mulliken population analysis for root number:  1
      -----------------------------------------------
 
 
++    Molecular charges:
      ------------------
 
      Mulliken charges per centre and basis function type
      ---------------------------------------------------
 
                C1      C2      H3      H4      O1      O2      H7      C8      H9      H10     H11     C12   
      1s       2.0042  2.0039  1.2550  1.2651  2.0015  2.0003  0.7875  2.0040  1.2634  1.2643  1.2656  2.0039
      2s       1.3942  1.4500  0.0000  0.0000  1.8781  1.9301  0.0000  1.4460  0.0000  0.0000  0.0000  1.4499
[...]
   112 C12    *d0       -0.0100   -0.0093   -0.0019   -0.0017   -0.0036    0.0033
   113 C12    *d1+       0.0090    0.0044   -0.0012    0.0007   -0.0006    0.0005
   114 C12    *d2+      -0.0112    0.0184    0.0023    0.0009    0.0035   -0.0019
   115 H13    1s         0.3115   -0.1607    0.0132    0.0023    0.0094   -0.0084
   116 H13    *s        -0.0627    0.0310   -0.0238    0.0086   -0.0224    0.0022
   117 H13    *px        0.0049    0.0050    0.0001    0.0022   -0.0004   -0.0011
   118 H13    *py        0.0084   -0.0069    0.0005    0.0000    0.0007   -0.0003
   119 H13    *pz       -0.0029   -0.0037   -0.0000    0.0010   -0.0005   -0.0003
   120 H14    1s        -0.0152    0.0485   -0.0549   -0.0436   -0.0469    0.0221
   121 H14    *s         0.0046   -0.0223   -0.0063   -0.0001   -0.0018    0.0020
   122 H14    *px       -0.0013    0.0089    0.0019    0.0010    0.0019   -0.0016
   123 H14    *py       -0.0051    0.0002    0.0011    0.0011    0.0008   -0.0005
   124 H14    *pz       -0.0029   -0.0017   -0.0020   -0.0012   -0.0013    0.0001
   125 H15    1s        -0.2325   -0.2638    0.0188    0.0246    0.0065    0.0081
   126 H15    *s         0.0542    0.0610   -0.0275   -0.0594    0.0133   -0.0241
   127 H15    *px       -0.0062    0.0023    0.0012   -0.0026    0.0019   -0.0005
   128 H15    *py       -0.0014    0.0068   -0.0001   -0.0001   -0.0009   -0.0001
   129 H15    *pz        0.0067    0.0076   -0.0001   -0.0028   -0.0005   -0.0006
   130 H16    1s         0.0844   -0.0386    0.0569   -0.0325    0.0378    0.0156
   131 H16    *s        -0.0269    0.0105    0.0060   -0.0009    0.0005    0.0015
   132 H16    *px       -0.0010    0.0054    0.0016   -0.0010    0.0012    0.0006
   133 H16    *py       -0.0089    0.0020    0.0017   -0.0005    0.0017    0.0013
   134 H16    *pz       -0.0005   -0.0027    0.0023   -0.0010    0.0010    0.0001
--
 
      Von Neumann Entropy (Root   1) =  0.99430
 

      Mulliken population analysis for root number:  1
      -----------------------------------------------
 
 
++    Molecular charges:
      ------------------
 
      Mulliken charges per centre and basis function type
      ---------------------------------------------------
 
                C1      C2      H3      H4      O1      O2      H7      C8      H9      H10     H11     C12   
      1s       2.0042  2.0039  1.2536  1.2636  2.0016  2.0007  1.0246  2.0039  1.2630  1.2632  1.2648  2.0039
      2s       1.3926  1.4492  0.0000  0.0000  1.8758  1.8988  0.0000  1.4499  0.0000  0.0000  0.0000  1.4460
      2px      1.0745  1.1667  0.0000  0.0000  1.0453  1.2628  0.0000  1.1627  0.0000  0.0000  0.0000  1.0748
      2pz      0.8985  1.1793  0.0000  0.0000  1.4809  1.4143  0.0000  1.1232  0.0000  0.0000  0.0000  1.1787
      2py      1.0558  1.0995  0.0000  0.0000  1.8091  1.6984  0.0000  1.1526  0.0000  0.0000  0.0000  1.1737
      *s      -0.1833 -0.4408 -0.3340 -0.3327  0.0215 -0.0615 -0.3120 -0.4451 -0.3340 -0.3340 -0.3303 -0.4370
      *px     -0.0743 -0.1757  0.0073  0.0211  0.0086 -0.0189  0.0262 -0.1759  0.0062  0.0212  0.0069 -0.1849
      *pz     -0.1002 -0.1762  0.0158  0.0054  0.0026  0.0129  0.0275 -0.1922  0.0046  0.0047  0.0168 -0.1776
      *py     -0.0728 -0.1855  0.0082  0.0043  0.0373  0.0010  0.0314 -0.1780  0.0199  0.0050  0.0072 -0.1784
      *d2+     0.0360  0.0181  0.0000  0.0000  0.0008  0.0004  0.0000  0.0172  0.0000  0.0000  0.0000  0.0172
      *d1+     0.0292  0.0054  0.0000  0.0000  0.0023  0.0019  0.0000  0.0083  0.0000  0.0000  0.0000  0.0092
      *d0      0.0392  0.0121  0.0000  0.0000  0.0029  0.0005  0.0000  0.0135  0.0000  0.0000  0.0000  0.0121
      *d1-     0.0402  0.0123  0.0000  0.0000  0.0034  0.0016  0.0000  0.0122  0.0000  0.0000  0.0000  0.0086
      *d2-     0.0245  0.0086  0.0000  0.0000  0.0008  0.0027  0.0000  0.0055  0.0000  0.0000  0.0000  0.0089
      Total    6.1641  5.9769  0.9509  0.9617  8.2927  8.2156  0.7978  5.9578  0.9599  0.9602  0.9655  5.9554
 
      N-E     -0.1641  0.0231  0.0491  0.0383 -0.2927 -0.2156  0.2022  0.0422  0.0401  0.0398  0.0345  0.0446
 
                H13     H14     H15     H16   
      1s       1.2646  1.2659  1.2538  1.2654
      2s       0.0000  0.0000  0.0000  0.0000
      2px      0.0000  0.0000  0.0000  0.0000
      2pz      0.0000  0.0000  0.0000  0.0000
      2py      0.0000  0.0000  0.0000  0.0000
      *s      -0.3331 -0.3274 -0.3404 -0.3307
      *px      0.0054  0.0074  0.0060  0.0069
      *pz      0.0054  0.0149  0.0170  0.0160
      *py      0.0200  0.0085  0.0082  0.0081
      *d2+     0.0000  0.0000  0.0000  0.0000
      *d1+     0.0000  0.0000  0.0000  0.0000
      *d0      0.0000  0.0000  0.0000  0.0000
      *d1-     0.0000  0.0000  0.0000  0.0000
      *d2-     0.0000  0.0000  0.0000  0.0000
      Total    0.9622  0.9693  0.9446  0.9657
 
      N-E      0.0378  0.0307  0.0554  0.0343
 
      Total electronic charge=   50.000000
 
      Total            charge=   -0.000000
--
 
 

      Expectation values of various properties for root number:  1
      -----------------------------------------------------------
 
 
++    Molecular properties:
      ---------------------
 
      Charge (e):
                      =   -0.0000
      Dipole Moment (Debye):
      Origin of the operator (Ang)=    0.0000    0.0000    0.0000
                   X=  3.7452E-01               Y= -2.4202E-01               Z= -2.9215E+00           Total=  2.9554E+00
      Quadrupole Moment (Debye*Ang):
      Origin of the operator (Ang)=   -0.0309    0.1362    0.1550
                  XX= -3.7092E+01              XY=  8.5728E-01              XZ=  2.3328E+00              YY= -3.9559E+01
                  YZ= -1.9097E+00              ZZ= -4.3155E+01
      In traceless form (Debye*Ang)
                  XX=  4.2650E+00              XY=  1.2859E+00              XZ=  3.4991E+00              YY=  5.6467E-01
                  YZ= -2.8645E+00              ZZ= -4.8296E+00
--
 
      Von Neumann Entropy (Root   2) =  1.00765
 

      Mulliken population analysis for root number:  2
      -----------------------------------------------
 
 
++    Molecular charges:
      ------------------
 
      Mulliken charges per centre and basis function type
      ---------------------------------------------------
 
                C1      C2      H3      H4      O1      O2      H7      C8      H9      H10     H11     C12   
      1s       2.0042  2.0039  1.2542  1.2636  2.0016  2.0007  1.0245  2.0039  1.2630  1.2632  1.2649  2.0039
      2s       1.3926  1.4492  0.0000  0.0000  1.8758  1.8988  0.0000  1.4500  0.0000  0.0000  0.0000  1.4460
      2px      1.0745  1.1666  0.0000  0.0000  1.0470  1.6690  0.0000  1.1627  0.0000  0.0000  0.0000  1.0750
      2pz      0.8986  1.1792  0.0000  0.0000  1.4855  1.4787  0.0000  1.1234  0.0000  0.0000  0.0000  1.1789
      2py      1.0558  1.0992  0.0000  0.0000  1.8034  1.2280  0.0000  1.1527  0.0000  0.0000  0.0000  1.1738
      *s      -0.1833 -0.4407 -0.3382 -0.3327  0.0214 -0.0616 -0.3114 -0.4451 -0.3340 -0.3339 -0.3303 -0.4370
      *px     -0.0743 -0.1757  0.0073  0.0211  0.0085 -0.0067  0.0310 -0.1759  0.0062  0.0212  0.0069 -0.1844
      *pz     -0.0999 -0.1761  0.0158  0.0054  0.0027  0.0148  0.0278 -0.1922  0.0046  0.0047  0.0168 -0.1778
      *py     -0.0727 -0.1860  0.0082  0.0043  0.0371 -0.0141  0.0258 -0.1780  0.0199  0.0050  0.0072 -0.1785
      *d2+     0.0359  0.0181  0.0000  0.0000  0.0008  0.0004  0.0000  0.0172  0.0000  0.0000  0.0000  0.0172
      *d1+     0.0292  0.0054  0.0000  0.0000  0.0023  0.0018  0.0000  0.0083  0.0000  0.0000  0.0000  0.0092
      *d0      0.0394  0.0121  0.0000  0.0000  0.0029  0.0005  0.0000  0.0135  0.0000  0.0000  0.0000  0.0121
      *d1-     0.0402  0.0123  0.0000  0.0000  0.0034  0.0017  0.0000  0.0122  0.0000  0.0000  0.0000  0.0086
      *d2-     0.0245  0.0086  0.0000  0.0000  0.0008  0.0027  0.0000  0.0055  0.0000  0.0000  0.0000  0.0089
      Total    6.1647  5.9760  0.9473  0.9617  8.2932  8.2148  0.7977  5.9582  0.9599  0.9602  0.9656  5.9559
 
      N-E     -0.1647  0.0240  0.0527  0.0383 -0.2932 -0.2148  0.2023  0.0418  0.0401  0.0398  0.0344  0.0441
 
                H13     H14     H15     H16   
      1s       1.2646  1.2659  1.2532  1.2652
      2s       0.0000  0.0000  0.0000  0.0000
      2px      0.0000  0.0000  0.0000  0.0000
      2pz      0.0000  0.0000  0.0000  0.0000
      2py      0.0000  0.0000  0.0000  0.0000
      *s      -0.3332 -0.3274 -0.3364 -0.3307
      *px      0.0054  0.0074  0.0060  0.0069
      *pz      0.0054  0.0149  0.0171  0.0160
      *py      0.0200  0.0085  0.0082  0.0081
      *d2+     0.0000  0.0000  0.0000  0.0000
      *d1+     0.0000  0.0000  0.0000  0.0000
      *d0      0.0000  0.0000  0.0000  0.0000
      *d1-     0.0000  0.0000  0.0000  0.0000
      *d2-     0.0000  0.0000  0.0000  0.0000
      Total    0.9621  0.9693  0.9481  0.9655
 
      N-E      0.0379  0.0307  0.0519  0.0345
 
      Total electronic charge=   50.000000
 
      Total            charge=   -0.000000
--
 
 

      Expectation values of various properties for root number:  2
      -----------------------------------------------------------
 
 
++    Molecular properties:
      ---------------------
 
      Charge (e):
                      =   -0.0000
      Dipole Moment (Debye):
      Origin of the operator (Ang)=    0.0000    0.0000    0.0000
                   X=  3.5943E-01               Y= -2.4233E-01               Z= -2.9211E+00           Total=  2.9531E+00
      Quadrupole Moment (Debye*Ang):
      Origin of the operator (Ang)=   -0.0309    0.1362    0.1550
                  XX= -3.7584E+01              XY=  8.9989E-01              XZ=  1.6109E+00              YY= -3.9001E+01
                  YZ= -2.6411E+00              ZZ= -4.3276E+01
      In traceless form (Debye*Ang)
                  XX=  3.5546E+00              XY=  1.3498E+00              XZ=  2.4164E+00              YY=  1.4289E+00
                  YZ= -3.9616E+00              ZZ= -4.9835E+00
--
 
      Von Neumann Entropy (Root   3) =  1.00388
 

      Mulliken population analysis for root number:  3
      -----------------------------------------------
 
 
++    Molecular charges:
      ------------------
 
      Mulliken charges per centre and basis function type
      ---------------------------------------------------
 
                C1      C2      H3      H4      O1      O2      H7      C8      H9      H10     H11     C12   
      1s       2.0042  2.0039  1.2538  1.2637  2.0016  2.0007  1.0258  2.0039  1.2632  1.2632  1.2640  2.0039
      2s       1.3926  1.4473  0.0000  0.0000  1.8755  1.8988  0.0000  1.4495  0.0000  0.0000  0.0000  1.4485
      2px      1.0731  1.1659  0.0000  0.0000  1.8383  1.2696  0.0000  1.1618  0.0000  0.0000  0.0000  1.0889
      2pz      0.8987  1.1794  0.0000  0.0000  1.4280  1.4036  0.0000  1.1214  0.0000  0.0000  0.0000  1.1783
      2py      1.0577  1.0896  0.0000  0.0000  1.0721  1.6999  0.0000  1.1530  0.0000  0.0000  0.0000  1.1735
      *s      -0.1833 -0.4407 -0.3349 -0.3323  0.0215 -0.0614 -0.3145 -0.4451 -0.3357 -0.3326 -0.3303 -0.4373
      *px     -0.0724 -0.1759  0.0073  0.0210  0.0385 -0.0187  0.0260 -0.1762  0.0062  0.0212  0.0068 -0.1850
      *pz     -0.1002 -0.1770  0.0158  0.0054  0.0003  0.0126  0.0271 -0.1924  0.0047  0.0047  0.0168 -0.1767
      *py     -0.0736 -0.1854  0.0082  0.0043  0.0081  0.0010  0.0314 -0.1778  0.0199  0.0050  0.0072 -0.1782
      *d2+     0.0360  0.0182  0.0000  0.0000  0.0007  0.0004  0.0000  0.0172  0.0000  0.0000  0.0000  0.0172
      *d1+     0.0327  0.0054  0.0000  0.0000  0.0023  0.0019  0.0000  0.0083  0.0000  0.0000  0.0000  0.0093
      *d0      0.0380  0.0120  0.0000  0.0000  0.0029  0.0005  0.0000  0.0135  0.0000  0.0000  0.0000  0.0122
      *d1-     0.0366  0.0124  0.0000  0.0000  0.0034  0.0016  0.0000  0.0122  0.0000  0.0000  0.0000  0.0087
      *d2-     0.0253  0.0086  0.0000  0.0000  0.0008  0.0027  0.0000  0.0055  0.0000  0.0000  0.0000  0.0090
      Total    6.1654  5.9637  0.9502  0.9622  8.2940  8.2131  0.7958  5.9548  0.9585  0.9615  0.9646  5.9723
 
      N-E     -0.1654  0.0363  0.0498  0.0378 -0.2940 -0.2131  0.2042  0.0452  0.0415  0.0385  0.0354  0.0277
 
                H13     H14     H15     H16   
      1s       1.2644  1.2703  1.2535  1.2626
      2s       0.0000  0.0000  0.0000  0.0000
      2px      0.0000  0.0000  0.0000  0.0000
      2pz      0.0000  0.0000  0.0000  0.0000
      2py      0.0000  0.0000  0.0000  0.0000
      *s      -0.3330 -0.3272 -0.3396 -0.3308
      *px      0.0054  0.0075  0.0060  0.0068
      *pz      0.0054  0.0149  0.0170  0.0160
      *py      0.0200  0.0085  0.0082  0.0080
      *d2+     0.0000  0.0000  0.0000  0.0000
      *d1+     0.0000  0.0000  0.0000  0.0000
      *d0      0.0000  0.0000  0.0000  0.0000
      *d1-     0.0000  0.0000  0.0000  0.0000
      *d2-     0.0000  0.0000  0.0000  0.0000
      Total    0.9622  0.9740  0.9451  0.9626
 
      N-E      0.0378  0.0260  0.0549  0.0374
 
      Total electronic charge=   50.000000
 
      Total            charge=   -0.000000
--
 
 

      Expectation values of various properties for root number:  3
      -----------------------------------------------------------
 
 
++    Molecular properties:
      ---------------------
 
      Charge (e):
                      =   -0.0000
      Dipole Moment (Debye):
      Origin of the operator (Ang)=    0.0000    0.0000    0.0000
                   X=  5.2909E-01               Y= -1.7520E-01               Z= -2.9060E+00           Total=  2.9589E+00
      Quadrupole Moment (Debye*Ang):
      Origin of the operator (Ang)=   -0.0309    0.1362    0.1550
                  XX= -3.8304E+01              XY=  9.6761E-01              XZ=  2.4395E+00              YY= -3.8465E+01
                  YZ= -1.6252E+00              ZZ= -4.2894E+01
      In traceless form (Debye*Ang)
                  XX=  2.3755E+00              XY=  1.4514E+00              XZ=  3.6593E+00              YY=  2.1340E+00
                  YZ= -2.4378E+00              ZZ= -4.5095E+00
--
 
      Von Neumann Entropy (Root   4) =  0.99765
 

      Mulliken population analysis for root number:  4
      -----------------------------------------------
 
 
++    Molecular charges:
      ------------------
 
      Mulliken charges per centre and basis function type
      ---------------------------------------------------
 
                C1      C2      H3      H4      O1      O2      H7      C8      H9      H10     H11     C12   
      1s       2.0042  2.0039  1.2544  1.2637  2.0016  2.0007  1.0258  2.0039  1.2632  1.2632  1.2640  2.0039
      2s       1.3926  1.4473  0.0000  0.0000  1.8755  1.8988  0.0000  1.4494  0.0000  0.0000  0.0000  1.4485
      2px      1.0730  1.1659  0.0000  0.0000  1.8469  1.6669  0.0000  1.1618  0.0000  0.0000  0.0000  1.0891
      2pz      0.8988  1.1793  0.0000  0.0000  1.4237  1.4814  0.0000  1.1212  0.0000  0.0000  0.0000  1.1785
      2py      1.0577  1.0895  0.0000  0.0000  1.0685  1.2242  0.0000  1.1530  0.0000  0.0000  0.0000  1.1736
      *s      -0.1833 -0.4406 -0.3389 -0.3322  0.0215 -0.0615 -0.3140 -0.4451 -0.3357 -0.3326 -0.3303 -0.4374
      *px     -0.0724 -0.1759  0.0073  0.0210  0.0389 -0.0067  0.0308 -0.1762  0.0062  0.0212  0.0068 -0.1846
      *pz     -0.0998 -0.1769  0.0158  0.0054  0.0001  0.0150  0.0275 -0.1924  0.0047  0.0047  0.0168 -0.1769
      *py     -0.0737 -0.1858  0.0082  0.0043  0.0081 -0.0142  0.0258 -0.1778  0.0199  0.0050  0.0072 -0.1782
      *d2+     0.0361  0.0182  0.0000  0.0000  0.0007  0.0004  0.0000  0.0172  0.0000  0.0000  0.0000  0.0171
      *d1+     0.0328  0.0054  0.0000  0.0000  0.0023  0.0018  0.0000  0.0083  0.0000  0.0000  0.0000  0.0093
      *d0      0.0379  0.0120  0.0000  0.0000  0.0029  0.0005  0.0000  0.0135  0.0000  0.0000  0.0000  0.0122
      *d1-     0.0365  0.0124  0.0000  0.0000  0.0033  0.0017  0.0000  0.0122  0.0000  0.0000  0.0000  0.0087
      *d2-     0.0253  0.0086  0.0000  0.0000  0.0008  0.0027  0.0000  0.0055  0.0000  0.0000  0.0000  0.0090
      Total    6.1658  5.9632  0.9468  0.9623  8.2948  8.2117  0.7959  5.9545  0.9584  0.9615  0.9646  5.9729
 
      N-E     -0.1658  0.0368  0.0532  0.0377 -0.2948 -0.2117  0.2041  0.0455  0.0416  0.0385  0.0354  0.0271
 
                H13     H14     H15     H16   
      1s       1.2644  1.2705  1.2529  1.2625
      2s       0.0000  0.0000  0.0000  0.0000
      2px      0.0000  0.0000  0.0000  0.0000
      2pz      0.0000  0.0000  0.0000  0.0000
      2py      0.0000  0.0000  0.0000  0.0000
      *s      -0.3330 -0.3272 -0.3354 -0.3308
      *px      0.0054  0.0075  0.0060  0.0068
      *pz      0.0054  0.0149  0.0171  0.0160
      *py      0.0200  0.0085  0.0082  0.0080
      *d2+     0.0000  0.0000  0.0000  0.0000
      *d1+     0.0000  0.0000  0.0000  0.0000
      *d0      0.0000  0.0000  0.0000  0.0000
      *d1-     0.0000  0.0000  0.0000  0.0000
      *d2-     0.0000  0.0000  0.0000  0.0000
      Total    0.9622  0.9742  0.9487  0.9626
 
      N-E      0.0378  0.0258  0.0513  0.0374
 
      Total electronic charge=   50.000000
 
      Total            charge=   -0.000000
--
 
 

      Expectation values of various properties for root number:  4
      -----------------------------------------------------------
 
 
++    Molecular properties:
      ---------------------
 
      Charge (e):
                      =   -0.0000
      Dipole Moment (Debye):
      Origin of the operator (Ang)=    0.0000    0.0000    0.0000
                   X=  5.1640E-01               Y= -1.8153E-01               Z= -2.9064E+00           Total=  2.9575E+00
      Quadrupole Moment (Debye*Ang):
      Origin of the operator (Ang)=   -0.0309    0.1362    0.1550
                  XX= -3.8801E+01              XY=  9.8629E-01              XZ=  1.6863E+00              YY= -3.7904E+01
                  YZ= -2.3198E+00              ZZ= -4.2989E+01
      In traceless form (Debye*Ang)
                  XX=  1.6454E+00              XY=  1.4794E+00              XZ=  2.5294E+00              YY=  2.9913E+00
                  YZ= -3.4797E+00              ZZ= -4.6367E+00
--
 
 
      Input file to MOLDEN was generated!
 
 
      Input file to MOLDEN was generated!
 
 
      Input file to MOLDEN was generated!
 
 
      Input file to MOLDEN was generated!
 
 
      Input file to MOLDEN was generated!
 
      Average orbitals are written to the RASORB file
      Natural orbitals for root   1 are written to the RASORB.1 file
      Natural orbitals for root   2 are written to the RASORB.2 file
      Natural orbitals for root   3 are written to the RASORB.3 file
      Natural orbitals for root   4 are written to the RASORB.4 file
      Spin density orbitals for root   1 are written to the SPDORB.1 file
      Spin density orbitals for root   2 are written to the SPDORB.2 file
      Spin density orbitals for root   3 are written to the SPDORB.3 file
      Spin density orbitals for root   4 are written to the SPDORB.4 file
 
--- Stop Module: last_energy at Wed Jul  8 14:20:15 2026 /rc=_RC_ALL_IS_WELL_ ---
*** files: relaxed_scan_tbhp_casscf.rasscf.molden relaxed_scan_tbhp_casscf.rasscf.molden.1 relaxed_scan_tbhp_casscf.rasscf.molden.2 relaxed_scan_tbhp_casscf.rasscf.molden.3
           relaxed_scan_tbhp_casscf.rasscf.molden.4 relaxed_scan_tbhp_casscf.RasOrb relaxed_scan_tbhp_casscf.RasOrb.1 relaxed_scan_tbhp_casscf.RasOrb.2
           relaxed_scan_tbhp_casscf.RasOrb.3 relaxed_scan_tbhp_casscf.RasOrb.4 relaxed_scan_tbhp_casscf.SpdOrb.1 relaxed_scan_tbhp_casscf.SpdOrb.2 relaxed_scan_tbhp_casscf.SpdOrb.3
           relaxed_scan_tbhp_casscf.SpdOrb.4 xmldump
    saved to directory /vscratch/grp-cyberwksp21/hclifford/openmolcas/PES/runs_relaxed_s1/R_2p60
--- Module last_energy spent 35 seconds ---

>>> END DO

.##################.
.# Happy landing! #.
.##################.

    Timing: Wall=1899.25 User=1486.05 System=299.15
