   This run of MOLCAS is using the pymolcas driver

                             OPE
                             OPE          NMOL  CASOP  ENMOLC A   SO
                 OPE        NMOLC        AS  OP EN  MO LC     AS  OP
                OPENM       OL CA        SO  PE NM  OL CA     SOP EN
                OP EN      MO   LC       AS  OP ENMOL  CASO   PENMOL
                OP  EN     MO   LC       AS  OP EN     MO     LC ASO
               OP   E  NMOL  C  AS       OP  EN MO     LC     AS  OP
               OP  E   NMO   LC AS        OPEN  MO     LCASOP EN   M
               O  PEN   MO  LCA  SO
            OPE   NMO   L   CAS    OP
        OPENMOL  CASOP     ENMOL   CASOPE
     OPENMOLCA   SOPENMOLCASOPEN   MOLCASOPE
    OPENMOLCAS   OP           EN   MOL    CAS
    OPENMOLCAS       OP  ENM        O     LCA
    OPENMOLCAS    OPEN  MOLCASO     P  E  NMO
    OPENMOLCAS     OP               E  N  MOL
    OPENMOLCA   SO           PENM   O  L  CAS    OPEN    MO    LCAS
    OPENMOLCA   SOP           ENM   O  L  CAS   OP  EN  MOLC  AS   O
    OPENMOLCA   SOPE           NM      O  LCA   S      OP  EN MO
    OPENMOLC                AS         O  PEN   M      OL  CA  SOPE
    OPENMO        LCASOPE  NMOL        C  ASO   P      ENMOLC     AS
    OPE     NMO      LCA  SO     P     E   NM   OL  CA SO  PE N   MO
          OPENMOLCA            SOPE   NMO        LCAS  O    P  ENMO
     OPENMOLCASOPENMOLCASOPENMOLCASOPENMOLCA
        OPENMOLCASOPENMOLCASOPENMOLCASOPE
            OPENMOLCASOPENMOLCASOPENM
               OPENMOLCASOPENMOLCA        version: v23.10 ?
                   OPENMOLCASO
                       OPE                tag:

 OpenMolcas is free software; you can redistribute it and/or modify it
 under the terms of the GNU Lesser General Public License version 2.1.
 OpenMolcas is distributed in the hope that it will be useful, but it
 is provided "as is" and without any express or implied warranties.
 For more details see the full text of the license in the file
 LICENSE or in <http://www.gnu.org/licenses/>.

                 Copyright (C) The OpenMolcas Authors
           For the author list and the recommended citation,
                   consult the file CONTRIBUTORS.md

           *************************************************
           * pymolcas version py2.25                       *
           *   build 2b27fa14244bdc32cb1957e6230cd793      *
           *   (after the EMIL interpreter by V. Veryazov) *
           *************************************************

configuration info
------------------
Host name: cpn-h22-29.core.ccr.buffalo.edu (Linux)
C Compiler ID: Intel
C flags: -O2 -xCore-AVX512 -ftz -fp-speculation=safe -fp-model source -std=gnu99 -gcc-sys -qopenmp
Fortran Compiler ID: Intel
Fortran flags: -O2 -xCore-AVX512 -ftz -fp-speculation=safe -fp-model source  -fpp -i8 -heap-arrays -qopenmp
Definitions: _MOLCAS_;_I8_;_LINUX_;_MOLCAS_MPP_;_SCALAPACK_;_GA_
Parallel: ON (GA=ON)


   -----------------------------------------------------------------------------------------------------------------------------------------------------
  |
  |           Project: relaxed_scan_tbhp_casscf
  |    Submitted from: /vscratch/grp-cyberwksp21/hclifford/openmolcas/PES/runs_relaxed_s1/R_2p00
  |      Scratch area: /vscratch/grp-cyberwksp21/hclifford/openmolcas/PES/runs_relaxed_s1/R_2p00/molcas_scratch_R_2p00/relaxed_scan_tbhp_casscf
  |   Save outputs to: /vscratch/grp-cyberwksp21/hclifford/openmolcas/PES/runs_relaxed_s1/R_2p00
  |            Molcas: /cvmfs/soft.ccr.buffalo.edu/versions/2023.01/easybuild/software/avx512/MPI/intel/2022.0.1/impi/2021.5.0/openmolcas/23.10
  |
  | Scratch area is empty
  |
  |    MOLCAS_DRIVER = /cvmfs/soft.ccr.buffalo.edu/versions/2023.01/easybuild/software/avx512/MPI/intel/2022.0.1/impi/2021.5.0/openmolcas/23.10/pymolcas
  |    MOLCAS_MOLDEN = ON
  |    MOLCAS_NPROCS = 1
  |     MOLCAS_PRINT = NORMAL
  |    MOLCAS_SOURCE = /cvmfs/soft.ccr.buffalo.edu/versions/2023.01/easybuild/software/avx512/MPI/intel/2022.0.1/impi/2021.5.0/openmolcas/23.10
  | MOLCAS_STRUCTURE = 0
  |
   -----------------------------------------------------------------------------------------------------------------------------------------------------

++ ---------   Input file   ---------

&GATEWAY
  Coord = tbhp.xyz
  Basis = cc-pVDZ
  Group = NoSymm
  Constraints
    rOO = Bond O1 O2
  Values
    rOO = 2.00 Angstrom
  End of Constraints

>>> DO WHILE

  &SEWARD

  &RASSCF
    Spin = 1
    NActEl = 6 0 0
    Inactive = 22
    Ras2 = 4
    CiRoot = 4 4 1
    RlxRoot = 2
    LumOrb
    LevShift = 1.0

  &ALASKA

  &SLAPAF

>>> END DO

-- ----------------------------------

--- Start Module: gateway at Wed Jul  8 12:23:10 2026 ---
 
()()()()()()()()()()()()()()()()()()()()()()()()()()()()()()()()()()()()()()()()()()()()()()()()()()

                                              &GATEWAY

                       only a single process is used, running in SERIAL mode
                        available to each process: 12 GB of memory, 1 thread
                                            pid: 231478
()()()()()()()()()()()()()()()()()()()()()()()()()()()()()()()()()()()()()()()()()()()()()()()()()()
 
 
++    Symmetry information:
      ---------------------
 
                    Character Table for C1 
 
                             E  
                    a        1  x, y, xy, Rz, z, xz, Ry, yz, Rx, I
--
 
 
++    Basis set information:
      ----------------------
 
 
      Basis set label: C.CC-PVDZ.........
 
      Electronic valence basis set:
      ------------------
      Associated Effective Charge   6.000000 au
      Associated Actual Charge      6.000000 au
      Nuclear Model: Point charge
 
      Shell  nPrim  nBasis  Cartesian Spherical Contaminant
         s       9       3        X                  
         p       4       2        X                  
         d       1       1                 X         
 
 
      Basis set label: H.CC-PVDZ.........
 
      Electronic valence basis set:
      ------------------
      Associated Effective Charge   1.000000 au
      Associated Actual Charge      1.000000 au
      Nuclear Model: Point charge
 
      Shell  nPrim  nBasis  Cartesian Spherical Contaminant
         s       4       2        X                  
         p       1       1        X                  
 
 
      Basis set label: O.CC-PVDZ.........
 
      Electronic valence basis set:
      ------------------
      Associated Effective Charge   8.000000 au
      Associated Actual Charge      8.000000 au
      Nuclear Model: Point charge
 
      Shell  nPrim  nBasis  Cartesian Spherical Contaminant
         s       9       3        X                  
         p       4       2        X                  
         d       1       1                 X         
 
 
      Basis set label: H.CC-PVDZ.........
 
      Electronic valence basis set:
      ------------------
      Associated Effective Charge   1.000000 au
      Associated Actual Charge      1.000000 au
      Nuclear Model: Point charge
 
      Shell  nPrim  nBasis  Cartesian Spherical Contaminant
         s       4       2        X                  
         p       1       1        X                  
 
 
      Basis set label: C.CC-PVDZ.........
 
      Electronic valence basis set:
      ------------------
      Associated Effective Charge   6.000000 au
      Associated Actual Charge      6.000000 au
      Nuclear Model: Point charge
 
      Shell  nPrim  nBasis  Cartesian Spherical Contaminant
         s       9       3        X                  
         p       4       2        X                  
         d       1       1                 X         
 
 
      Basis set label: H.CC-PVDZ.........
 
      Electronic valence basis set:
      ------------------
      Associated Effective Charge   1.000000 au
      Associated Actual Charge      1.000000 au
      Nuclear Model: Point charge
 
      Shell  nPrim  nBasis  Cartesian Spherical Contaminant
         s       4       2        X                  
         p       1       1        X                  
 
 
      Basis set label: C.CC-PVDZ.........
 
      Electronic valence basis set:
      ------------------
      Associated Effective Charge   6.000000 au
      Associated Actual Charge      6.000000 au
      Nuclear Model: Point charge
 
      Shell  nPrim  nBasis  Cartesian Spherical Contaminant
         s       9       3        X                  
         p       4       2        X                  
         d       1       1                 X         
 
 
      Basis set label: H.CC-PVDZ.........
 
      Electronic valence basis set:
      ------------------
      Associated Effective Charge   1.000000 au
      Associated Actual Charge      1.000000 au
      Nuclear Model: Point charge
 
      Shell  nPrim  nBasis  Cartesian Spherical Contaminant
         s       4       2        X                  
         p       1       1        X                  
--
 
 
++    Molecular structure info:
      -------------------------
 
                    ************************************************ 
                    **** Cartesian Coordinates / Bohr, Angstrom **** 
                    ************************************************ 
 
     Center  Label                x              y              z                     x              y              z
        1      C1              -0.021542       0.141236      -0.863799             -0.011400       0.074739      -0.457103
        2      C2               0.831168       2.894138      -0.976131              0.439835       1.531512      -0.516547
        3      H3               0.063091       3.973818       0.597379              0.033386       2.102854       0.316120
        4      H4               2.889618       3.006368      -0.897928              1.529120       1.590901      -0.475163
        5      O1               1.048443      -1.087412       1.282909              0.554812      -0.575434       0.678886
        6      O2              -0.315850       0.646327       4.351640             -0.167141       0.342021       2.302789
        7      H7               1.263745      -0.351457       4.767996              0.668745      -0.185983       2.523115
        8      C8               1.105388      -1.375518      -3.048072              0.584946      -0.727893      -1.612970
        9      H9               0.556259      -3.358152      -2.914267              0.294360      -1.777058      -1.542164
       10      H10              3.164481      -1.268188      -3.022044              1.674571      -0.671096      -1.599197
       11      H11              0.434286      -0.629140      -4.848329              0.229814      -0.332927      -2.565625
       12      C12             -2.895285      -0.095819      -0.822797             -1.532119      -0.050705      -0.435405
       13      H13             -3.445010      -2.076354      -0.655641             -1.823021      -1.098759      -0.346950
       14      H14             -3.697104       0.662660      -2.566952             -1.956423       0.350665      -1.358373
       15      H15             -3.702320       0.934206       0.764700             -1.959183       0.494360       0.404662
       16      H16              0.198038       3.766686      -2.736247              0.104797       1.993244      -1.447959
 
                    ************************************************* 
                    **** InterNuclear Distances / Bohr, Angstrom **** 
                    ************************************************* 
 
     Atom centers         Bohr        Angstrom
    7 H7        6 O2      1.914169        1.012935
    3 H3        2 C2      2.057082        1.088561
   15 H15      12 C12     2.057280        1.088666
   11 H11       8 C8      2.061161        1.090720
    9 H9        8 C8      2.061622        1.090963
   10 H10       8 C8      2.062053        1.091191
   13 H13      12 C12     2.062197        1.091268
    4 H4        2 C2      2.062990        1.091687
   14 H14      12 C12     2.064025        1.092235
   16 H16       2 C2    
    5 O1        1 C1      2.694958        1.426110
   12 C12       1 C1      2.883795        1.526039
    2 C2        1 C1      2.884130        1.526216
    8 C8        1 C1      2.888177        1.528357
   15 H15      13 H13     3.338719        1.766774
    4 H4        3 H3      3.340833        1.767893
   15 H15      14 H14     3.342704        1.768883
   16 H16       3 H3      3.342780        1.768923
   10 H10       9 H9      3.344008        1.769573
   11 H11      10 H10     3.346292        1.770781
   16 H16       4 H4      3.346954        1.771132
   11 H11       9 H9      3.347086        1.771202
   14 H14      13 H13     3.349457        1.772456
    7 H7        5 O1      3.568447        1.888341
    6 O2        5 O1      3.779452        2.000000
   11 H11       1 C1      4.083839        2.161075
   13 H13       1 C1      4.084258        2.161296
   14 H14       1 C1      4.084405        2.161374
    4 H4        1 C1      4.084728        2.161545
   16 H16       1 C1      4.086339        2.162397
    9 H9        1 C1      4.096827        2.167948
   10 H10       1 C1      4.098200        2.168674
   15 H15       1 C1      4.102308        2.170848
    3 H3        1 C1      4.102547        2.170974
    8 C8        5 O1      4.340927        2.297119
   12 C12       5 O1      4.579328        2.423276
    5 O1        2 C2      4.582926        2.425180
   12 C12       8 C8      4.753406        2.515394
    8 C8        2 C2      4.753746        2.515574
   13 H13       9 H9      4.770174        2.524267
   12 C12       2 C2      4.780148        2.529545
   10 H10       4 H4      4.781134        2.530067
    9 H9        5 O1      4.797374        2.538661
   10 H10       5 O1      4.800304        2.540212
   15 H15       3 H3      4.842061        2.562308
   16 H16      11 H11     4.882622        2.583772
   14 H14      11 H11     4.893037        2.589284
   15 H15       6 O2      4.941376        2.614863
   16 H16      14 H14     4.983550        2.637181
    5 O1        4 H4      4.990492        2.640855
   13 H13       5 O1      4.992705        2.642026
    6 O2        3 H3      5.030931        2.662254
   13 H13       8 C8      5.188547        2.745661
   15 H15       5 O1      5.188952        2.745875
   12 C12       9 H9      5.189434        2.746130
   10 H10       2 C2      5.191827        2.747397
    8 C8        4 H4      5.196876        2.750068
    5 O1        3 H3      5.201626        2.752582
   12 C12       3 H3      5.227890        2.766480
   16 H16       8 C8      5.230945        2.768097
   15 H15       2 C2      5.236825        2.771209
   14 H14       8 C8      5.239235        2.772484
    6 O2        1 C1      5.248099        2.777174
   11 H11       2 C2      5.250231        2.778302
   12 C12      11 H11     5.251227        2.778830
   14 H14       2 C2      5.292963        2.800915
   16 H16      12 C12     5.305553        2.807577
--
 
 
            Nuclear Potential Energy            259.26842243 au
 
--- Stop Module: gateway at Wed Jul  8 12:23:11 2026 /rc=_RC_ALL_IS_WELL_ ---
*** files: xmldump
    saved to directory /vscratch/grp-cyberwksp21/hclifford/openmolcas/PES/runs_relaxed_s1/R_2p00

--- Start Module: seward at Wed Jul  8 12:23:11 2026 ---
 
()()()()()()()()()()()()()()()()()()()()()()()()()()()()()()()()()()()()()()()()()()()()()()()()()()

                                              &SEWARD

                       only a single process is used, running in SERIAL mode
                        available to each process: 12 GB of memory, 1 thread
                                            pid: 231482
()()()()()()()()()()()()()()()()()()()()()()()()()()()()()()()()()()()()()()()()()()()()()()()()()()
 
               SEWARD will generate:
                  Multipole Moment integrals up to order  2
                  Kinetic Energy integrals
                  Nuclear Attraction integrals (point charge)
                  One-Electron Hamiltonian integrals
                  Velocity integrals
                  Orbital angular momentum around (-0.0260  0.1822  0.1110 )
                  Velocity quadrupole around (-0.0260  0.1822  0.1110 )
                  Two-Electron Repulsion integrals
 
                   Integrals are discarded if absolute value <: 0.10E-13
                   Integral cutoff threshold is set to       <: 0.10E-15
 
            Nuclear Potential Energy            259.26842243 au
 
 
      Basis set specifications :
      Symmetry species         a  
      Basis functions          134
 
 
      Input file to MOLDEN was generated!
 
--- Stop Module: seward at Wed Jul  8 12:23:28 2026 /rc=_RC_ALL_IS_WELL_ ---
*** files: relaxed_scan_tbhp_casscf.GssOrb relaxed_scan_tbhp_casscf.guessorb.h5 relaxed_scan_tbhp_casscf.guessorb.molden xmldump
    saved to directory /vscratch/grp-cyberwksp21/hclifford/openmolcas/PES/runs_relaxed_s1/R_2p00
--- Module seward spent 17 seconds ---

*** symbolic link created: INPORB -> relaxed_scan_tbhp_casscf.GssOrb
--- Start Module: rasscf at Wed Jul  8 12:23:29 2026 ---
 
()()()()()()()()()()()()()()()()()()()()()()()()()()()()()()()()()()()()()()()()()()()()()()()()()()

                                              &RASSCF

                       only a single process is used, running in SERIAL mode
                        available to each process: 12 GB of memory, 1 thread
                                            pid: 231509
()()()()()()()()()()()()()()()()()()()()()()()()()()()()()()()()()()()()()()()()()()()()()()()()()()
 
 
      Header of the ONEINT file:
      --------------------------
      
      Integrals generated by Gateway/Seward, Wed Jul  8 12:23:11 2026
 
 
      OrdInt status: non-squared
 
 
      Cartesian coordinates in Angstrom:
      -----------------------------------------------------
      No.  Label        X            Y            Z        
      -----------------------------------------------------
       1   C1        -0.01139969   0.07473874  -0.45710275
       2   C2         0.43983524   1.53151203  -0.51654652
       3   H3         0.03338615   2.10285377   0.31611957
       4   H4         1.52912019   1.59090129  -0.47516326
       5   O1         0.55481218  -0.57543356   0.67888606
       6   O2        -0.16714067   0.34202138   2.30278893
       7   H7         0.66874488  -0.18598325   2.52311476
       8   C8         0.58494633  -0.72789299  -1.61297035
       9   H9         0.29435984  -1.77705775  -1.54216375
      10   H10        1.67457144  -0.67109611  -1.59919702
      11   H11        0.22981418  -0.33292659  -2.56562545
      12   C12       -1.53211881  -0.05070542  -0.43540531
      13   H13       -1.82302072  -1.09875916  -0.34695030
      14   H14       -1.95642321   0.35066475  -1.35837253
      15   H15       -1.95918318   0.49436032   0.40466163
      16   H16        0.10479738   1.99324446  -1.44795932
      -----------------------------------------------------
      Nuclear repulsion energy =  259.26842243
 
++    Wave function specifications:
      -----------------------------
 
      Number of closed shell electrons          44
      Number of electrons in active shells       6
      Max number of holes in RAS1 space          0
      Max nr of electrons in RAS3 space          0
      Number of inactive orbitals               22
      Number of active orbitals                  4
      Number of secondary orbitals             108
      Spin quantum number                      0.0
      State symmetry                             1
--
 
++    Orbital specifications:
      -----------------------
 
      Symmetry species                           1
                                                 a
      Frozen orbitals                            0
      Inactive orbitals                         22
      Active orbitals                            4
      RAS1 orbitals                              0
      RAS2 orbitals                              4
      RAS3 orbitals                              0
      Secondary orbitals                       108
      Deleted orbitals                           0
      Number of basis functions                134
--
 
++    CI expansion specifications:
      ----------------------------
 
      Number of CSFs                            10
      Number of determinants                    10
      Number of root(s) required                 4
      Root chosen for geometry opt.              2
      CI roots used                              1     2     3     4
      weights                                0.250 0.250 0.250 0.250
      highest root included in the CI            4
      max. size of the explicit Hamiltonian     10
--
 
++    Optimization specifications:
      ----------------------------
 
      RASSCF algorithm: Conventional
      Maximum number of macro iterations       200
      Maximum number of SX iterations          100
      Threshold for RASSCF energy            0.100E-07
      Threshold for max MO rotation          0.100E+00
      Threshold for max BLB element          0.100E-03
      Level shift parameter                  0.100E+01
      Make Quasi-Newton update
--
 
      The MO-coefficients are taken from the file:
      INPORB                                                                                                                                                                                                                                                          
      Title:Guess orbitals                                                                 
 
      Total molecular charge    0.00
 
      ************************************************************************************************************************
      *                                                                                                                      *
      *                                            Wave function control section                                             *
      *                                                                                                                      *
      ************************************************************************************************************************
 
 
                                         RASSCF iterations: Energy and convergence statistics
                                         ----------------------------------------------------
 
      Iter CI   SX   CI       RASSCF       Energy    max ROT     max BLB   max BLB  Level Ln srch  Step   QN   Walltime
          iter iter root      energy       change     param      element    value   shift minimum  type update hh:mm:ss
 Nr of preliminary CI iterations:   1
        1   1  100    0  -305.94344292    0.00E+00  -0.82E-01   10  39 1  0.24E+00*  1.07   0.00    SX    NO    0:00:03
        2   1  100    0  -306.53792083   -0.59E+00* -0.77E-01   10  39 1  0.12E+00*  0.93   0.00    SX    NO    0:00:02
        3   1   79    0  -306.65723178   -0.12E+00* -0.65E-01    8  27 1  0.65E-01*  0.89   0.00    SX    NO    0:00:01
        4   1   17    0  -306.68867639   -0.31E-01* -0.61E-01    8  27 1  0.37E-01*  0.88   0.00    SX    NO    0:00:01
        5   1   30    0  -306.70125435   -0.13E-01* -0.72E-01    8  27 1  0.21E-01*  0.87   2.50    LS   YES    0:00:01
        6   1   19    0  -306.71015534   -0.89E-02* -0.98E-01   21  25 1  0.13E-01*  0.86   1.85    QN   YES    0:00:01
        7   1   15    0  -306.71671575   -0.66E-02* -0.13E+00*  21  25 1  0.11E-01*  0.85   2.16    QN   YES    0:00:01
        8   1   11    0  -306.72324043   -0.65E-02* -0.12E+00*   8  27 1 -0.15E-01*  0.84   1.80    QN   YES    0:00:01
        9   1   11    0  -306.72766757   -0.44E-02*  0.65E-01    8  27 1 -0.14E-01*  0.83   1.57    QN   YES    0:00:01
       10   1   12    0  -306.73022687   -0.26E-02*  0.25E-01    8  27 1 -0.82E-02*  0.83   1.64    QN   YES    0:00:01
       11   1   11    0  -306.73177625   -0.15E-02*  0.18E-01   20  24 1 -0.53E-02*  0.83   1.63    QN   YES    0:00:01
       12   1   11    0  -306.73272550   -0.95E-03*  0.34E-01   20  24 1 -0.62E-02*  0.83   2.17    QN   YES    0:00:01
       13   1   12    0  -306.73404732   -0.13E-02*  0.70E-01    8  27 1  0.78E-02*  0.83   2.50    QN   YES    0:00:01
       14   1   12    0  -306.73640449   -0.24E-02*  0.11E+00*   8  27 1  0.11E-01*  0.83   2.50    QN   YES    0:00:01
       15   1   11    0  -306.73970768   -0.33E-02*  0.96E-01    8  27 1  0.13E-01*  0.83   1.53    QN   YES    0:00:01
       16   1   12    0  -306.74243166   -0.27E-02* -0.57E-01    8  27 1  0.13E-01*  0.83   1.30    QN   YES    0:00:01
       17   1   15    0  -306.74592340   -0.35E-02* -0.60E-01   16  27 1 -0.12E-01*  0.83   2.25    QN   YES    0:00:01
       18   1   11    0  -306.75177792   -0.59E-02*  0.46E-01   17  23 1  0.77E-02*  0.84   1.74    QN   YES    0:00:01
       19   1   11    0  -306.75511687   -0.33E-02* -0.43E-01    8  27 1 -0.77E-02*  0.84   1.70    QN   YES    0:00:01
       20   1   10    0  -306.75712967   -0.20E-02*  0.55E-01    8  27 1 -0.79E-02*  0.84   1.76    QN   YES    0:00:01
       21   1   10    0  -306.75876924   -0.16E-02* -0.37E-01   12  38 1 -0.63E-02*  0.85   1.52    QN   YES    0:00:01
       22   1   10    0  -306.75977565   -0.10E-02*  0.20E-01   16  27 1  0.66E-02*  0.85   1.10    QN   YES    0:00:01
       23   1   10    0  -306.76033650   -0.56E-03*  0.82E-02    8  27 1  0.26E-02*  0.85   1.26    QN   YES    0:00:01
       24   1    9    0  -306.76051382   -0.18E-03*  0.45E-02    8  27 1  0.16E-02*  0.85   1.40    QN   YES    0:00:01
       25   1    9    0  -306.76056058   -0.47E-04*  0.26E-02   12  31 1 -0.76E-03*  0.85   1.40    QN   YES    0:00:01
       26   1    8    0  -306.76057384   -0.13E-04* -0.12E-02   12  38 1  0.49E-03*  0.85   1.36    QN   YES    0:00:01
       27   1    8    0  -306.76057718   -0.33E-05*  0.56E-03    8  27 1 -0.23E-03*  0.85   1.38    QN   YES    0:00:01
       28   1    7    0  -306.76057829   -0.11E-05* -0.45E-03   17  24 1  0.12E-03*  0.85   1.57    QN   YES    0:00:01
       29   1    7    0  -306.76057883   -0.54E-06* -0.40E-03   12  38 1 -0.10E-03*  0.85   1.46    QN   YES    0:00:01
       30   1    7    0  -306.76057904   -0.21E-06* -0.24E-03   12  38 1 -0.71E-04   0.85   1.54    QN   YES    0:00:01
       31   1    7    0  -306.76057913   -0.94E-07* -0.15E-03    8  27 1  0.45E-04   0.85   1.53    QN   YES    0:00:01
       32   1    6    0  -306.76057917   -0.42E-07* -0.85E-04   12  31 1 -0.20E-04   0.85   1.50    QN   YES    0:00:01
       33   1    6    0  -306.76057919   -0.17E-07*  0.65E-04   12  38 1  0.18E-04   0.85   1.44    QN   YES    0:00:01
       34   1    6    0  -306.76057920   -0.58E-08  -0.48E-04   12  38 1  0.11E-04   0.85   1.47    QN   YES    0:00:01
      Convergence after 34 iterations
       35   1    6    0  -306.76057920   -0.22E-08  -0.48E-04   22  44 1  0.55E-05   0.85   1.47    QN   YES    0:00:01
 
      ************************************************************************************************************************
                                                      Wave function printout:
                       occupation of active orbitals, and spin coupling of open shells (u,d: Spin up or down)
      ************************************************************************************************************************
 
      Note: transformation to natural orbitals
      has been made, which may change the order of the CSFs.
 
      printout of CI-coefficients larger than  0.05 for root  1
      energy=    -306.937250
      conf/sym  1111     Coeff  Weight
             1  2220   0.05695 0.00324
             4  2u2d  -0.84569 0.71519
             8  2022  -0.50269 0.25269
             9  ud22   0.16806 0.02824
 
      printout of CI-coefficients larger than  0.05 for root  2
      energy=    -306.886132
      conf/sym  1111     Coeff  Weight
             5  2ud2   0.99883 0.99767
 
      printout of CI-coefficients larger than  0.05 for root  3
      energy=    -306.756411
      conf/sym  1111     Coeff  Weight
             4  2u2d   0.11421 0.01304
             8  2022   0.13790 0.01902
             9  ud22   0.98335 0.96698
 
      printout of CI-coefficients larger than  0.05 for root  4
      energy=    -306.462524
      conf/sym  1111     Coeff  Weight
             1  2220  -0.16273 0.02648
             4  2u2d  -0.51830 0.26863
             8  2022   0.83648 0.69969
             9  ud22  -0.05605 0.00314
 
      Natural orbitals and occupation numbers for root  1
      sym 1:   1.999900   0.403052   1.999701   1.597346
 
      Natural orbitals and occupation numbers for root  2
      sym 1:   2.000000   0.998936   1.001065   1.999999
 
      Natural orbitals and occupation numbers for root  3
      sym 1:   1.178477   0.821839   1.999828   1.999855
 
      Natural orbitals and occupation numbers for root  4
      sym 1:   1.999309   0.164928   1.996866   1.838898
 
      ************************************************************************************************************************
      *                                                                                                                      *
      *                                                    Final results                                                     *
      *                                                                                                                      *
      ************************************************************************************************************************
 
 
++    Wave function specifications:
      -----------------------------
 
      Number of closed shell electrons          44
      Number of electrons in active shells       6
      Max number of holes in RAS1 space          0
      Max nr of electrons in RAS3 space          0
      Number of inactive orbitals               22
      Number of active orbitals                  4
      Number of secondary orbitals             108
      Spin quantum number                      0.0
      State symmetry                             1
--
 
++    Orbital specifications:
      -----------------------
 
      Symmetry species                           1
                                                 a
      Frozen orbitals                            0
      Inactive orbitals                         22
      Active orbitals                            4
      RAS1 orbitals                              0
      RAS2 orbitals                              4
      RAS3 orbitals                              0
      Secondary orbitals                       108
      Deleted orbitals                           0
      Number of basis functions                134
--
 
++    CI expansion specifications:
      ----------------------------
 
      Number of CSFs                            10
      Number of determinants                    10
      Number of root(s) required                 4
      CI roots used                              1     2     3     4
      weights                                0.250 0.250 0.250 0.250
      highest root included in the CI            4
      Root passed to geometry opt.               2
--
 
++    Final optimization conditions:
      ------------------------------
 
      Average CI energy                            -306.76057920
      RASSCF energy for state  2                   -306.88613160
      Super-CI energy                                -0.00000000
      RASSCF energy change                           -0.00000000
      Max change in MO coefficients              -0.465E-04
      Max non-diagonal density matrix element    -0.480E-04
      Maximum BLB matrix element                  0.555E-05
      (orbital pair  22,  44 in symmetry   1)
      Norm of electronic gradient            0.243E+00
--
 
 
      Final state energy(ies):
      ------------------------
 
::    RASSCF root number  1 Total energy:   -306.93724959
::    RASSCF root number  2 Total energy:   -306.88613160
::    RASSCF root number  3 Total energy:   -306.75641121
::    RASSCF root number  4 Total energy:   -306.46252439
 
++    Molecular orbitals:
      -------------------
 
      Pseudonatural active orbitals and approximate occupation numbers
 
 
 
 
      Molecular orbitals for symmetry species 1: a  
 
 
      Orbital                 1         2         3         4         5         6         7         8         9        10
      Energy           -20.6655  -20.5369  -11.2874  -11.2165  -11.2155  -11.2133   -1.3386   -1.2697   -1.0421   -0.9366
      Occ. No.           2.0000    2.0000    2.0000    2.0000    2.0000    2.0000    2.0000    2.0000    2.0000    2.0000
 
     1 C1     1s         0.0000   -0.0002   -1.0020    0.0043   -0.0043   -0.0041   -0.0049   -0.0102   -0.0158   -0.0001
     2 C1     2s        -0.0000   -0.0009   -0.0100   -0.0003    0.0003    0.0005    0.1729    0.3306    0.3876    0.0022
     3 C1     *s        -0.0005    0.0045    0.0168   -0.0006    0.0006    0.0003   -0.0717   -0.0993    0.0110    0.0002
     4 C1     2px       -0.0000    0.0001   -0.0003   -0.0001   -0.0003    0.0001    0.0276    0.0523   -0.0746   -0.1886
     5 C1     *px       -0.0002    0.0012   -0.0001   -0.0005   -0.0007    0.0003   -0.0144   -0.0211    0.0070    0.0108
     6 C1     2py       -0.0000   -0.0001    0.0003   -0.0003   -0.0000   -0.0002   -0.0317   -0.0601    0.0857   -0.1702
     7 C1     *py        0.0004   -0.0015    0.0002   -0.0007   -0.0003   -0.0004    0.0156    0.0228   -0.0059    0.0105
     8 C1     2pz       -0.0001    0.0003   -0.0007    0.0000    0.0000   -0.0002    0.0632    0.0905   -0.1574   -0.0027
     9 C1     *pz        0.0005    0.0018   -0.0002   -0.0005    0.0005   -0.0003   -0.0300   -0.0416    0.0229    0.0005
    10 C1     *d2-      -0.0000   -0.0000    0.0000    0.0001   -0.0000    0.0000   -0.0040   -0.0073    0.0078   -0.0065
    11 C1     *d1-      -0.0001   -0.0001    0.0000    0.0000   -0.0001   -0.0001   -0.0072   -0.0129    0.0152    0.0014
    12 C1     *d0       -0.0001    0.0001   -0.0000   -0.0001    0.0001   -0.0000    0.0061    0.0083   -0.0147    0.0011
    13 C1     *d1+       0.0000    0.0001   -0.0000   -0.0001    0.0000    0.0001    0.0063    0.0112   -0.0135   -0.0017
    14 C1     *d2+       0.0000    0.0000    0.0000   -0.0001   -0.0001    0.0000   -0.0005   -0.0011    0.0010    0.0249
    15 C2     1s         0.0000   -0.0000   -0.0042   -1.0019    0.0091    0.0026   -0.0014   -0.0021   -0.0117    0.0172
    16 C2     2s         0.0001   -0.0002    0.0003   -0.0104   -0.0005   -0.0007    0.0422    0.0902    0.3736   -0.5570
    17 C2     *s        -0.0004   -0.0001   -0.0037    0.0124    0.0012    0.0014   -0.0158   -0.0351   -0.1451    0.1695
    18 C2     2px        0.0000    0.0000    0.0001   -0.0000    0.0001   -0.0001   -0.0048   -0.0078   -0.0334   -0.0204
    19 C2     *px        0.0001   -0.0003    0.0004   -0.0003   -0.0008    0.0002    0.0034    0.0016    0.0180    0.0079
    20 C2     2py        0.0000    0.0002    0.0003   -0.0002    0.0000    0.0001   -0.0219   -0.0445   -0.0705    0.0037
    21 C2     *py       -0.0001    0.0000    0.0014   -0.0008   -0.0003   -0.0007    0.0035    0.0192    0.0358   -0.0166
    22 C2     2pz       -0.0000   -0.0000    0.0000    0.0002    0.0000    0.0001    0.0062    0.0082   -0.0144    0.0004
    23 C2     *pz       -0.0001   -0.0003   -0.0003   -0.0002   -0.0001   -0.0006    0.0018   -0.0015    0.0042    0.0053
    24 C2     *d2-      -0.0000    0.0001    0.0000    0.0001    0.0001   -0.0000    0.0013    0.0022    0.0059    0.0002
    25 C2     *d1-       0.0000    0.0000   -0.0000   -0.0000    0.0000    0.0001   -0.0012   -0.0016    0.0023   -0.0005
    26 C2     *d0       -0.0000    0.0000   -0.0001   -0.0001   -0.0001    0.0000   -0.0021   -0.0037   -0.0046    0.0013
    27 C2     *d1+      -0.0000    0.0001   -0.0000   -0.0000    0.0000   -0.0001   -0.0011   -0.0016    0.0007    0.0000
    28 C2     *d2+       0.0000    0.0001   -0.0001   -0.0002    0.0001   -0.0001   -0.0032   -0.0056   -0.0056    0.0019
    29 H3     1s        -0.0001    0.0001    0.0004   -0.0001   -0.0002   -0.0000    0.0114    0.0209    0.1261   -0.2271
    30 H3     *s         0.0003   -0.0001   -0.0001   -0.0010   -0.0000    0.0004   -0.0023   -0.0141   -0.0534    0.0966
    31 H3     *px        0.0000    0.0000    0.0000    0.0002    0.0001   -0.0000    0.0004    0.0010    0.0032   -0.0075
    32 H3     *py       -0.0000    0.0001    0.0000   -0.0002    0.0000    0.0000   -0.0013   -0.0014   -0.0067    0.0098
    33 H3     *pz       -0.0000   -0.0000   -0.0000   -0.0004    0.0000    0.0000   -0.0004   -0.0013   -0.0087    0.0141
    34 H4     1s         0.0000   -0.0000    0.0004   -0.0002   -0.0000   -0.0002    0.0102    0.0259    0.1234   -0.2477
    35 H4     *s        -0.0001    0.0001   -0.0002   -0.0011    0.0004   -0.0001   -0.0049   -0.0114   -0.0558    0.1073
    36 H4     *px        0.0000    0.0000    0.0000   -0.0005    0.0000   -0.0000   -0.0013   -0.0026   -0.0110    0.0190
    37 H4     *py        0.0000    0.0001    0.0001    0.0000   -0.0000    0.0000   -0.0003   -0.0010   -0.0016   -0.0003
    38 H4     *pz       -0.0000   -0.0000    0.0000   -0.0000    0.0000    0.0001    0.0001    0.0007   -0.0010    0.0008
    39 O1     1s        -0.0001    1.0008    0.0001    0.0000   -0.0000   -0.0001   -0.0063   -0.0083    0.0038    0.0001
    40 O1     2s        -0.0003    0.0034   -0.0002    0.0002   -0.0002   -0.0003    0.4364    0.6656   -0.3704   -0.0029
    41 O1     *s         0.0004   -0.0060   -0.0012   -0.0000    0.0000    0.0004    0.0026   -0.0013   -0.0324   -0.0008
    42 O1     2px        0.0001   -0.0006    0.0000   -0.0000    0.0001   -0.0000   -0.0312   -0.0390   -0.0012   -0.0280
    43 O1     *px       -0.0002    0.0012   -0.0001   -0.0000   -0.0002    0.0001    0.0025    0.0053    0.0029    0.0121
    44 O1     2py       -0.0001    0.0007   -0.0000    0.0001   -0.0000    0.0000    0.0398    0.0453   -0.0005   -0.0252
    45 O1     *py        0.0002   -0.0014    0.0001   -0.0002    0.0000   -0.0002   -0.0038   -0.0034   -0.0047    0.0106
    46 O1     2pz       -0.0002   -0.0010    0.0000   -0.0000    0.0000    0.0001   -0.0196   -0.0900   -0.0190   -0.0014
    47 O1     *pz        0.0003    0.0020   -0.0001   -0.0000   -0.0000   -0.0005    0.0006    0.0222    0.0025   -0.0001
    48 O1     *d2-      -0.0000    0.0001   -0.0001   -0.0000    0.0000   -0.0000   -0.0024   -0.0032   -0.0004   -0.0003
    49 O1     *d1-       0.0001    0.0002   -0.0002    0.0000   -0.0000    0.0000   -0.0022   -0.0057   -0.0014    0.0014
    50 O1     *d0        0.0001   -0.0001    0.0002    0.0000   -0.0000    0.0001    0.0035    0.0047    0.0004    0.0001
    51 O1     *d1+      -0.0000   -0.0001    0.0002   -0.0000    0.0000   -0.0000    0.0023    0.0052    0.0010    0.0016
    52 O1     *d2+      -0.0000    0.0000   -0.0000    0.0000    0.0000   -0.0000   -0.0004   -0.0005   -0.0000    0.0020
    53 O2     1s         1.0003   -0.0001    0.0001   -0.0000    0.0000   -0.0000   -0.0006    0.0001    0.0006   -0.0000
    54 O2     2s         0.0011   -0.0004    0.0003   -0.0000    0.0000   -0.0001    0.7806   -0.5250    0.0644    0.0031
    55 O2     *s        -0.0014    0.0005   -0.0004    0.0001   -0.0001    0.0002   -0.0589    0.0267    0.0010    0.0008
    56 O2     2px        0.0015   -0.0000    0.0000    0.0000    0.0000   -0.0000    0.0740   -0.0418   -0.0120   -0.0104
    57 O2     *px       -0.0013    0.0002   -0.0000   -0.0001   -0.0001    0.0001   -0.0324    0.0187    0.0003    0.0006
    58 O2     2py       -0.0010    0.0001   -0.0000    0.0000    0.0000    0.0000   -0.0432    0.0194    0.0148   -0.0073
    59 O2     *py        0.0008   -0.0002    0.0000   -0.0000   -0.0000   -0.0001    0.0213   -0.0123   -0.0003    0.0002
    60 O2     2pz        0.0003    0.0001   -0.0001   -0.0000    0.0000    0.0000    0.0245   -0.0414    0.0077    0.0015
    61 O2     *pz        0.0001   -0.0002    0.0003    0.0000   -0.0000   -0.0001   -0.0037    0.0062    0.0014   -0.0004
    62 O2     *d2-       0.0000   -0.0000    0.0000    0.0000    0.0000   -0.0000   -0.0032    0.0018    0.0005   -0.0000
    63 O2     *d1-      -0.0002    0.0001   -0.0000    0.0000    0.0000    0.0000   -0.0017    0.0022   -0.0008    0.0001
    64 O2     *d0       -0.0004    0.0000   -0.0000    0.0000    0.0000    0.0000   -0.0027    0.0026   -0.0003    0.0000
    65 O2     *d1+       0.0001   -0.0000    0.0000    0.0000    0.0000   -0.0000    0.0017   -0.0021    0.0007    0.0002
    66 O2     *d2+       0.0000    0.0000   -0.0000   -0.0000   -0.0000    0.0000    0.0017   -0.0013    0.0001   -0.0001
    67 H7     1s         0.0002   -0.0003    0.0002    0.0001    0.0001   -0.0001    0.2692   -0.1703    0.0006   -0.0026
    68 H7     *s         0.0005    0.0001   -0.0001   -0.0000   -0.0000    0.0000   -0.1261    0.0862   -0.0033    0.0013
    69 H7     *px        0.0004    0.0000   -0.0000    0.0000   -0.0000    0.0000   -0.0282    0.0187   -0.0010   -0.0001
    70 H7     *py       -0.0003   -0.0000   -0.0000    0.0000    0.0000   -0.0000    0.0179   -0.0128    0.0011   -0.0003
    71 H7     *pz        0.0001    0.0000   -0.0001   -0.0000    0.0000   -0.0000   -0.0071    0.0010    0.0010    0.0002
    72 C8     1s        -0.0001   -0.0000   -0.0040    0.0029   -0.0042    1.0019   -0.0012   -0.0032   -0.0107   -0.0014
    73 C8     2s        -0.0003   -0.0002    0.0002    0.0007   -0.0007    0.0104    0.0420    0.1053    0.3403    0.0467
    74 C8     *s         0.0009   -0.0006   -0.0033   -0.0015    0.0015   -0.0123   -0.0160   -0.0427   -0.1254   -0.0141
    75 C8     2px       -0.0000    0.0000    0.0002    0.0000    0.0001    0.0000   -0.0057   -0.0146   -0.0404   -0.0328
    76 C8     *px       -0.0001   -0.0000    0.0004   -0.0001   -0.0009    0.0004    0.0028    0.0059    0.0174    0.0146
    77 C8     2py        0.0000   -0.0001   -0.0002    0.0001   -0.0000   -0.0000    0.0081    0.0206    0.0527   -0.0265
    78 C8     *py        0.0001    0.0000   -0.0006   -0.0009    0.0002   -0.0006   -0.0041   -0.0074   -0.0233    0.0115
    79 C8     2pz       -0.0000   -0.0002   -0.0003    0.0000   -0.0000   -0.0003    0.0191    0.0475    0.0413    0.0020
    80 C8     *pz        0.0004   -0.0003   -0.0011   -0.0001    0.0002   -0.0005   -0.0043   -0.0135   -0.0226   -0.0021
    81 C8     *d2-      -0.0000   -0.0001    0.0000   -0.0000   -0.0000    0.0001   -0.0003   -0.0015   -0.0047   -0.0006
    82 C8     *d1-       0.0000   -0.0001    0.0001   -0.0000    0.0000   -0.0002    0.0026    0.0060    0.0064   -0.0016
    83 C8     *d0        0.0000    0.0000    0.0001    0.0001   -0.0001   -0.0001    0.0018    0.0026    0.0003    0.0002
    84 C8     *d1+      -0.0000    0.0001   -0.0001    0.0000   -0.0001    0.0001   -0.0020   -0.0045   -0.0049   -0.0024
    85 C8     *d2+      -0.0000   -0.0000    0.0000    0.0001    0.0001    0.0000   -0.0002   -0.0006   -0.0013    0.0019
    86 H9     1s        -0.0001    0.0000    0.0003    0.0000   -0.0002    0.0002    0.0103    0.0279    0.1110    0.0437
    87 H9     *s         0.0000   -0.0001   -0.0002   -0.0004   -0.0001    0.0010   -0.0046   -0.0120   -0.0495   -0.0221
    88 H9     *px       -0.0000    0.0000    0.0000    0.0000    0.0001   -0.0002    0.0003    0.0008    0.0016    0.0007
    89 H9     *py        0.0000   -0.0000   -0.0000    0.0000   -0.0000   -0.0004    0.0011    0.0028    0.0100    0.0018
    90 H9     *pz       -0.0000   -0.0001   -0.0001   -0.0000   -0.0000    0.0001    0.0004    0.0007   -0.0001   -0.0016
    91 H10    1s        -0.0001    0.0000    0.0003    0.0002   -0.0000    0.0002    0.0104    0.0278    0.1111   -0.0044
    92 H10    *s         0.0001   -0.0001   -0.0002    0.0001    0.0004    0.0010   -0.0044   -0.0122   -0.0494    0.0053
    93 H10    *px        0.0000    0.0000    0.0000    0.0000    0.0000    0.0005   -0.0012   -0.0028   -0.0101   -0.0011
    94 H10    *py        0.0000   -0.0000   -0.0000    0.0001    0.0000    0.0001   -0.0000   -0.0001    0.0006    0.0001
    95 H10    *pz       -0.0000   -0.0001   -0.0000    0.0000    0.0000    0.0001    0.0005    0.0009    0.0003    0.0014
    96 H11    1s        -0.0000   -0.0001    0.0002    0.0002   -0.0002    0.0002    0.0100    0.0216    0.1283    0.0189
    97 H11    *s         0.0001    0.0002   -0.0002    0.0001   -0.0001    0.0012   -0.0039   -0.0104   -0.0627   -0.0084
    98 H11    *px        0.0000   -0.0000    0.0000    0.0000    0.0001   -0.0002    0.0003    0.0008    0.0036   -0.0003
    99 H11    *py       -0.0000    0.0000   -0.0000    0.0001    0.0000    0.0002   -0.0003   -0.0009   -0.0040   -0.0012
   100 H11    *pz       -0.0000    0.0000   -0.0001   -0.0000    0.0000   -0.0004    0.0010    0.0027    0.0093    0.0014
   101 C12    1s         0.0000   -0.0000   -0.0041    0.0095    1.0019    0.0038   -0.0013   -0.0021   -0.0117   -0.0159
   102 C12    2s         0.0001   -0.0002    0.0003    0.0007    0.0104   -0.0007    0.0429    0.0896    0.3705    0.5149
   103 C12    *s        -0.0003   -0.0001   -0.0036   -0.0014   -0.0123    0.0014   -0.0156   -0.0366   -0.1428   -0.1576
   104 C12    2px       -0.0000   -0.0002   -0.0003    0.0001   -0.0002   -0.0001    0.0229    0.0452    0.0754    0.0011
   105 C12    *px        0.0000    0.0000   -0.0014   -0.0005   -0.0008    0.0006   -0.0066   -0.0181   -0.0381   -0.0146
   106 C12    2py       -0.0000    0.0000   -0.0000    0.0001    0.0001    0.0001    0.0003   -0.0019    0.0168   -0.0243
   107 C12    *py       -0.0001    0.0003   -0.0001   -0.0007   -0.0001   -0.0004   -0.0014    0.0022   -0.0095    0.0127
   108 C12    2pz       -0.0000   -0.0000    0.0000   -0.0000   -0.0002    0.0001    0.0056    0.0056   -0.0189   -0.0028
   109 C12    *pz       -0.0001   -0.0004   -0.0002    0.0002    0.0003   -0.0006    0.0009    0.0003    0.0062   -0.0037
   110 C12    *d2-      -0.0000    0.0001   -0.0000   -0.0001   -0.0000   -0.0001   -0.0002   -0.0001    0.0028   -0.0014
   111 C12    *d1-       0.0000   -0.0001    0.0000    0.0000   -0.0000    0.0001    0.0008    0.0013   -0.0003    0.0002
   112 C12    *d0       -0.0000    0.0000   -0.0001    0.0001    0.0001    0.0000   -0.0020   -0.0040   -0.0043   -0.0013
   113 C12    *d1+      -0.0000   -0.0001    0.0000    0.0000   -0.0000   -0.0001    0.0011    0.0012   -0.0032   -0.0009
   114 C12    *d2+      -0.0000   -0.0000    0.0001    0.0000   -0.0002    0.0000    0.0034    0.0060    0.0074    0.0016
   115 H13    1s         0.0000   -0.0000    0.0004    0.0000    0.0002   -0.0002    0.0104    0.0255    0.1221    0.2316
   116 H13    *s        -0.0001    0.0001   -0.0002   -0.0004    0.0011   -0.0001   -0.0046   -0.0114   -0.0552   -0.1013
   117 H13    *px       -0.0000   -0.0001   -0.0001   -0.0000   -0.0000   -0.0000    0.0007    0.0014    0.0039    0.0033
   118 H13    *py        0.0000   -0.0000    0.0000    0.0000   -0.0005    0.0000    0.0013    0.0024    0.0103    0.0173
   119 H13    *pz       -0.0000   -0.0000    0.0000   -0.0000    0.0000    0.0001    0.0002    0.0004   -0.0015   -0.0016
   120 H14    1s         0.0001   -0.0000    0.0002    0.0002    0.0002   -0.0002    0.0083    0.0193    0.1392    0.2111
   121 H14    *s        -0.0000    0.0001   -0.0003    0.0001    0.0012   -0.0001   -0.0037   -0.0100   -0.0662   -0.0923
   122 H14    *px        0.0000    0.0001   -0.0001    0.0000   -0.0001   -0.0000    0.0006    0.0015    0.0043    0.0069
   123 H14    *py       -0.0000   -0.0000   -0.0000    0.0001    0.0002    0.0000   -0.0002   -0.0007   -0.0043   -0.0070
   124 H14    *pz        0.0000    0.0000   -0.0000   -0.0000   -0.0004    0.0001    0.0006    0.0016    0.0101    0.0146
   125 H15    1s        -0.0001    0.0001    0.0004    0.0002    0.0001   -0.0000    0.0128    0.0201    0.1249    0.2060
   126 H15    *s         0.0002   -0.0000   -0.0001    0.0001    0.0010    0.0004   -0.0057   -0.0122   -0.0529   -0.0870
   127 H15    *px       -0.0000   -0.0001   -0.0000    0.0000   -0.0001   -0.0000    0.0012    0.0011    0.0054    0.0069
   128 H15    *py       -0.0000   -0.0000   -0.0000    0.0001    0.0003    0.0000   -0.0007   -0.0013   -0.0048   -0.0090
   129 H15    *pz       -0.0000   -0.0000    0.0000   -0.0000    0.0004    0.0000   -0.0001   -0.0015   -0.0087   -0.0129
   130 H16    1s         0.0001   -0.0001    0.0002   -0.0002   -0.0002   -0.0002    0.0093    0.0186    0.1405   -0.2287
   131 H16    *s        -0.0000    0.0001   -0.0003   -0.0012   -0.0001   -0.0001   -0.0028   -0.0106   -0.0666    0.0996
   132 H16    *px        0.0000   -0.0000    0.0000    0.0002    0.0001   -0.0000    0.0002    0.0003    0.0037   -0.0062
   133 H16    *py       -0.0000   -0.0001    0.0001   -0.0001    0.0000    0.0000   -0.0006   -0.0015   -0.0048    0.0082
   134 H16    *pz        0.0000    0.0000   -0.0000    0.0004   -0.0000    0.0001    0.0009    0.0015    0.0103   -0.0160
 
 
      Orbital                11        12        13        14        15        16        17        18        19        20
      Energy            -0.9333   -0.7217   -0.6771   -0.6043   -0.6038   -0.5880   -0.5655   -0.5416   -0.5360   -0.5101
      Occ. No.           2.0000    2.0000    2.0000    2.0000    2.0000    2.0000    2.0000    2.0000    2.0000    2.0000
 
     1 C1     1s        -0.0002    0.0007   -0.0002   -0.0002    0.0002   -0.0011   -0.0002    0.0001    0.0002    0.0001
     2 C1     2s         0.0030   -0.5528   -0.1133   -0.0004    0.0013   -0.0866    0.0265   -0.0001   -0.0032   -0.0003
     3 C1     *s         0.0012    0.0829   -0.0034    0.0023   -0.0030    0.0049    0.0116   -0.0012   -0.0046   -0.0014
     4 C1     2px        0.1418    0.0407    0.0247   -0.0145    0.3574   -0.0131   -0.0459    0.0696   -0.0545   -0.0090
     5 C1     *px       -0.0093    0.0065   -0.0069   -0.0023   -0.0444    0.0038    0.0294   -0.0060   -0.0135   -0.0032
     6 C1     2py       -0.1542   -0.0467   -0.0358    0.3470    0.0596    0.0258    0.0174   -0.0731   -0.0695   -0.0048
     7 C1     *py        0.0107   -0.0118    0.0203   -0.0466   -0.0086    0.0044    0.0097    0.0084   -0.0045   -0.0027
     8 C1     2pz       -0.1434    0.1014    0.0782    0.1542   -0.1058   -0.0941    0.0399   -0.0634   -0.0096    0.0010
     9 C1     *pz        0.0046   -0.0036    0.0134   -0.0127    0.0102   -0.0017   -0.0006   -0.0000    0.0008   -0.0007
    10 C1     *d2-      -0.0126   -0.0008   -0.0037   -0.0039    0.0016   -0.0045   -0.0001   -0.0244   -0.0035   -0.0002
    11 C1     *d1-       0.0146   -0.0035   -0.0023   -0.0015   -0.0024   -0.0124   -0.0049    0.0022   -0.0134   -0.0002
    12 C1     *d0        0.0148    0.0034    0.0029   -0.0000    0.0001    0.0123   -0.0043   -0.0100    0.0014   -0.0001
    13 C1     *d1+      -0.0100    0.0031    0.0014   -0.0016   -0.0042    0.0082   -0.0102    0.0013   -0.0174   -0.0003
    14 C1     *d2+      -0.0053    0.0001   -0.0009    0.0007    0.0030   -0.0003    0.0014   -0.0059    0.0032    0.0002
    15 C2     1s         0.0077   -0.0084   -0.0006    0.0029    0.0017   -0.0010    0.0007   -0.0006   -0.0015    0.0000
    16 C2     2s        -0.2594    0.1672    0.0197   -0.0523   -0.0235   -0.0256    0.0171   -0.0089   -0.0255   -0.0012
    17 C2     *s         0.0797   -0.0077   -0.0156   -0.0039   -0.0030   -0.0044   -0.0102    0.0012    0.0124    0.0009
    18 C2     2px        0.0281    0.0924    0.0230   -0.1989    0.2756   -0.1221   -0.0117   -0.2362   -0.1360    0.3099
    19 C2     *px       -0.0128   -0.0309    0.0004    0.0368   -0.0580    0.0246   -0.0050    0.0292    0.0246   -0.0403
    20 C2     2py       -0.0125    0.2721    0.0702   -0.2163   -0.2399    0.0455   -0.0076    0.1145    0.0959   -0.1003
    21 C2     *py       -0.0011   -0.0675   -0.0241    0.0376    0.0460   -0.0122    0.0261   -0.0168   -0.0344    0.0096
    22 C2     2pz       -0.0238   -0.0061    0.0615    0.1467   -0.0975   -0.3445   -0.0855   -0.0883   -0.3981   -0.1947
    23 C2     *pz        0.0149   -0.0025   -0.0233   -0.0377    0.0148    0.0727    0.0019    0.0180    0.0623    0.0277
    24 C2     *d2-      -0.0028   -0.0102   -0.0029    0.0081    0.0013   -0.0005    0.0013   -0.0059   -0.0017    0.0036
    25 C2     *d1-       0.0015   -0.0016    0.0010    0.0006   -0.0010   -0.0094   -0.0027   -0.0005   -0.0123   -0.0076
    26 C2     *d0        0.0002    0.0100    0.0015   -0.0053   -0.0116    0.0076   -0.0001    0.0083    0.0100   -0.0082
    27 C2     *d1+       0.0010    0.0004   -0.0020   -0.0050    0.0031    0.0098    0.0015    0.0021    0.0092    0.0065
    28 C2     *d2+      -0.0011    0.0130    0.0024   -0.0110   -0.0014   -0.0033    0.0013   -0.0071   -0.0024    0.0093
    29 H3     1s        -0.1336    0.1748    0.0876    0.0454   -0.3049   -0.2080   -0.0681    0.0818   -0.2144   -0.3369
    30 H3     *s         0.0589   -0.0666   -0.0036   -0.0114    0.0981    0.0571   -0.0073   -0.0219    0.0759    0.0913
    31 H3     *px       -0.0040    0.0061    0.0023   -0.0024   -0.0011   -0.0067   -0.0016   -0.0035   -0.0072   -0.0006
    32 H3     *py        0.0036   -0.0013   -0.0031   -0.0044    0.0043    0.0075    0.0035   -0.0001    0.0072    0.0067
    33 H3     *pz        0.0080   -0.0098   -0.0021    0.0013    0.0128    0.0015   -0.0005   -0.0048    0.0016    0.0107
    34 H4     1s        -0.0901    0.1805    0.0372   -0.2257    0.2409   -0.1469   -0.0032   -0.2443   -0.1631    0.3153
    35 H4     *s         0.0351   -0.0572   -0.0158    0.0697   -0.0744    0.0401    0.0011    0.0683    0.0472   -0.0802
    36 H4     *px        0.0083   -0.0109   -0.0019    0.0099   -0.0081    0.0055    0.0008    0.0081    0.0057   -0.0109
    37 H4     *py        0.0012    0.0038    0.0016   -0.0030   -0.0044    0.0020   -0.0008    0.0031    0.0023   -0.0023
    38 H4     *pz       -0.0006   -0.0007    0.0012    0.0040   -0.0027   -0.0069   -0.0012   -0.0015   -0.0079   -0.0049
    39 O1     1s         0.0002   -0.0010    0.0003   -0.0007    0.0005   -0.0030    0.0010    0.0001   -0.0002   -0.0001
    40 O1     2s        -0.0305    0.1720    0.0278    0.0178   -0.0170    0.1381   -0.0235   -0.0079   -0.0013   -0.0010
    41 O1     *s        -0.0042    0.0339   -0.0014    0.0126   -0.0103    0.0700   -0.0183   -0.0049    0.0017    0.0007
    42 O1     2px        0.0231    0.0322   -0.0173    0.0043    0.0834    0.0164   -0.0455    0.0428   -0.0217    0.0001
    43 O1     *px       -0.0075   -0.0043    0.0018   -0.0011   -0.0183   -0.0060    0.0002   -0.0061    0.0096    0.0014
    44 O1     2py       -0.0257   -0.0318   -0.0031    0.0858    0.0176   -0.0351   -0.0312   -0.0476   -0.0187    0.0026
    45 O1     *py        0.0074    0.0062   -0.0028   -0.0154   -0.0061    0.0046   -0.0061    0.0057    0.0104    0.0017
    46 O1     2pz       -0.0336    0.0924   -0.0646    0.0817   -0.0583    0.0540    0.0077   -0.0652   -0.0052    0.0014
    47 O1     *pz        0.0047   -0.0086    0.0040   -0.0078    0.0061   -0.0054    0.0035    0.0027   -0.0017   -0.0006
    48 O1     *d2-       0.0012    0.0020   -0.0009   -0.0022    0.0021    0.0010   -0.0007    0.0007   -0.0003    0.0000
    49 O1     *d1-       0.0005    0.0042   -0.0004   -0.0017   -0.0025    0.0020   -0.0011    0.0008    0.0010    0.0004
    50 O1     *d0        0.0030   -0.0021   -0.0019   -0.0046    0.0031   -0.0014    0.0002    0.0032    0.0002   -0.0001
    51 O1     *d1+      -0.0005   -0.0033   -0.0006   -0.0017   -0.0031   -0.0023   -0.0004   -0.0007    0.0009    0.0004
    52 O1     *d2+       0.0001    0.0002    0.0003   -0.0026   -0.0024    0.0006    0.0022   -0.0001    0.0010   -0.0004
    53 O2     1s        -0.0005   -0.0008   -0.0008   -0.0001    0.0001   -0.0012    0.0006   -0.0001   -0.0002    0.0000
    54 O2     2s         0.0209   -0.0839    0.2441   -0.0431    0.0282    0.0465   -0.0143    0.0128   -0.0059   -0.0034
    55 O2     *s         0.0042   -0.0244    0.1250   -0.0130    0.0089    0.0358   -0.0133    0.0022   -0.0022   -0.0021
    56 O2     2px        0.0067    0.1227   -0.6102    0.0983   -0.0232   -0.2405   -0.4362    0.0072    0.2387    0.0647
    57 O2     *px       -0.0023   -0.0090    0.0471    0.0005   -0.0005    0.0058   -0.0154   -0.0012    0.0072    0.0016
    58 O2     2py       -0.0061   -0.0896    0.3863    0.0692    0.0186   -0.0718   -0.6941   -0.0047    0.3066    0.0776
    59 O2     *py        0.0015    0.0052   -0.0298    0.0017   -0.0009   -0.0096   -0.0167    0.0001    0.0115    0.0036
    60 O2     2pz        0.0120    0.0260   -0.1837   -0.0368    0.0058    0.0019    0.1879    0.0159   -0.0817   -0.0220
    61 O2     *pz       -0.0065   -0.0058    0.0149    0.0028   -0.0020   -0.0026    0.0067   -0.0039   -0.0039   -0.0013
    62 O2     *d2-      -0.0002   -0.0031    0.0136   -0.0003    0.0007    0.0015   -0.0053   -0.0003    0.0017    0.0003
    63 O2     *d1-      -0.0002   -0.0002    0.0039    0.0005    0.0000    0.0008   -0.0038   -0.0005    0.0020    0.0006
    64 O2     *d0       -0.0002   -0.0013    0.0078   -0.0001    0.0000    0.0022    0.0008   -0.0003   -0.0009   -0.0002
    65 O2     *d1+       0.0002    0.0007   -0.0064   -0.0000    0.0000   -0.0019    0.0011    0.0004    0.0005    0.0003
    66 O2     *d2+       0.0001    0.0012   -0.0067    0.0018   -0.0001   -0.0039   -0.0096    0.0001    0.0052    0.0016
    67 H7     1s         0.0139    0.1133   -0.5801    0.0242   -0.0171   -0.1276    0.0360    0.0129    0.0158    0.0081
    68 H7     *s        -0.0047   -0.0427    0.2284   -0.0105    0.0060    0.0528   -0.0131   -0.0042   -0.0062   -0.0028
    69 H7     *px       -0.0016   -0.0063    0.0355    0.0015    0.0007    0.0045   -0.0164   -0.0013    0.0058    0.0015
    70 H7     *py        0.0009    0.0037   -0.0233    0.0032    0.0000   -0.0100   -0.0188    0.0007    0.0101    0.0030
    71 H7     *pz        0.0004   -0.0017    0.0055   -0.0015    0.0005    0.0019    0.0051    0.0004   -0.0025   -0.0008
    72 C8     1s        -0.0190   -0.0078   -0.0018   -0.0030    0.0019   -0.0006   -0.0002    0.0017    0.0002    0.0000
    73 C8     2s         0.6301    0.1641    0.0384    0.0474   -0.0282   -0.0353    0.0096    0.0247    0.0013    0.0003
    74 C8     *s        -0.1953   -0.0260    0.0186    0.0065   -0.0041   -0.0070    0.0000   -0.0036    0.0009   -0.0002
    75 C8     2px        0.0076    0.1169    0.0538    0.2038    0.2267   -0.1356    0.1074    0.1848    0.1372   -0.2973
    76 C8     *px        0.0000   -0.0313   -0.0165   -0.0362   -0.0493    0.0309   -0.0186   -0.0277   -0.0136    0.0412
    77 C8     2py       -0.0041   -0.1566   -0.0705    0.0489    0.2414    0.1996   -0.0196   -0.2270    0.0942   -0.2485
    78 C8     *py       -0.0034    0.0420    0.0211   -0.0154   -0.0450   -0.0433    0.0053    0.0319   -0.0087    0.0338
    79 C8     2pz        0.0044   -0.2075   -0.0253   -0.2668    0.1590   -0.2047    0.0217    0.3821    0.0291    0.0166
    80 C8     *pz       -0.0212    0.0459    0.0123    0.0594   -0.0359    0.0499   -0.0071   -0.0672   -0.0047   -0.0025
    81 C8     *d2-      -0.0002    0.0078    0.0030    0.0012   -0.0021   -0.0068    0.0010    0.0057   -0.0013    0.0037
    82 C8     *d1-       0.0017   -0.0137   -0.0027   -0.0083    0.0107   -0.0054   -0.0003    0.0102    0.0002   -0.0016
    83 C8     *d0        0.0003   -0.0037   -0.0018   -0.0021    0.0005    0.0104   -0.0035   -0.0137   -0.0006   -0.0002
    84 C8     *d1+      -0.0011    0.0104    0.0017    0.0113   -0.0010    0.0053   -0.0015   -0.0090   -0.0022   -0.0013
    85 C8     *d2+      -0.0003    0.0022    0.0010    0.0045    0.0057   -0.0004    0.0038    0.0003    0.0069   -0.0160
    86 H9     1s         0.2656    0.1772    0.0672   -0.0926   -0.2871   -0.1874   -0.0020    0.2077   -0.1288    0.3385
    87 H9     *s        -0.1136   -0.0587   -0.0222    0.0290    0.0897    0.0536    0.0003   -0.0618    0.0369   -0.0877
    88 H9     *px        0.0062    0.0051    0.0020    0.0022    0.0003   -0.0052    0.0021    0.0068    0.0010   -0.0011
    89 H9     *py        0.0202    0.0093    0.0029   -0.0030   -0.0121   -0.0059   -0.0001    0.0060   -0.0048    0.0126
    90 H9     *pz       -0.0018   -0.0045   -0.0005   -0.0041    0.0050   -0.0040    0.0007    0.0069    0.0008   -0.0018
    91 H10    1s         0.2694    0.1773    0.0649    0.2194    0.2209   -0.1472    0.1123    0.1914    0.1471   -0.3286
    92 H10    *s        -0.1155   -0.0590   -0.0204   -0.0687   -0.0682    0.0418   -0.0302   -0.0565   -0.0426    0.0842
    93 H10    *px       -0.0212   -0.0104   -0.0031   -0.0099   -0.0077    0.0052   -0.0038   -0.0065   -0.0051    0.0118
    94 H10    *py       -0.0017   -0.0031   -0.0014    0.0010    0.0037    0.0041   -0.0006   -0.0053    0.0015   -0.0041
    95 H10    *pz       -0.0008   -0.0038   -0.0003   -0.0057    0.0020   -0.0047    0.0004    0.0075    0.0007    0.0014
    96 H11    1s         0.2582    0.1715    0.0005    0.2138   -0.1437    0.2992   -0.0617   -0.4914   -0.0373   -0.0081
    97 H11    *s        -0.1138   -0.0502   -0.0001   -0.0518    0.0346   -0.0653    0.0133    0.1200    0.0091    0.0020
    98 H11    *px        0.0070    0.0050    0.0009    0.0075    0.0021    0.0019    0.0013   -0.0046    0.0023   -0.0065
    99 H11    *py       -0.0077   -0.0059   -0.0012   -0.0028    0.0073   -0.0011    0.0007    0.0046    0.0028   -0.0052
   100 H11    *pz        0.0186    0.0066    0.0002    0.0064   -0.0046    0.0099   -0.0022   -0.0157   -0.0012   -0.0000
   101 C12    1s         0.0101   -0.0084   -0.0005   -0.0002   -0.0034   -0.0012    0.0003   -0.0009    0.0013   -0.0001
   102 C12    2s        -0.3376    0.1719    0.0068    0.0003    0.0574   -0.0294    0.0037   -0.0128    0.0186   -0.0007
   103 C12    *s         0.1041   -0.0107   -0.0085   -0.0020    0.0077    0.0014    0.0106    0.0032   -0.0126   -0.0006
   104 C12    2px        0.0048   -0.2857   -0.0579   -0.0395   -0.3068   -0.0453    0.0553   -0.0812    0.0593   -0.0193
   105 C12    *px        0.0068    0.0707    0.0270    0.0051    0.0588    0.0213    0.0000    0.0158   -0.0240    0.0006
   106 C12    2py       -0.0278   -0.0311   -0.0053    0.3481   -0.0003    0.1345    0.0186    0.2604   -0.1105    0.3355
   107 C12    *py        0.0110    0.0161   -0.0093   -0.0691   -0.0035   -0.0325   -0.0058   -0.0338    0.0235   -0.0431
   108 C12    2pz       -0.0226    0.0076    0.0827    0.1361   -0.0462   -0.2839    0.2557   -0.1687    0.3538    0.1716
   109 C12    *pz        0.0147   -0.0070   -0.0254   -0.0282    0.0192    0.0669   -0.0404    0.0304   -0.0538   -0.0237
   110 C12    *d2-      -0.0029   -0.0037   -0.0016    0.0012   -0.0028   -0.0026    0.0003   -0.0084    0.0009   -0.0069
   111 C12    *d1-      -0.0005   -0.0006    0.0028    0.0054   -0.0020   -0.0093    0.0078   -0.0035    0.0100    0.0086
   112 C12    *d0        0.0005    0.0098    0.0012    0.0075    0.0096    0.0080   -0.0033    0.0095   -0.0075    0.0085
   113 C12    *d1+      -0.0014    0.0033   -0.0005    0.0005    0.0005    0.0062   -0.0060    0.0029   -0.0099   -0.0048
   114 C12    *d2+      -0.0005   -0.0160   -0.0029    0.0036   -0.0128    0.0033    0.0014    0.0038   -0.0018    0.0066
   115 H13    1s        -0.1248    0.1822    0.0285   -0.3036    0.1045   -0.1570   -0.0112   -0.2541    0.1307   -0.3218
   116 H13    *s         0.0504   -0.0585   -0.0118    0.0945   -0.0320    0.0452    0.0072    0.0727   -0.0403    0.0831
   117 H13    *px       -0.0035   -0.0014   -0.0010   -0.0047   -0.0033   -0.0039    0.0011   -0.0053    0.0028   -0.0044
   118 H13    *py       -0.0104    0.0115    0.0020   -0.0104    0.0065   -0.0050    0.0000   -0.0077    0.0045   -0.0103
   119 H13    *pz        0.0001   -0.0011    0.0015    0.0047   -0.0020   -0.0054    0.0052   -0.0024    0.0066    0.0053
   120 H14    1s        -0.1369    0.1797   -0.0413    0.0305    0.1890    0.3145   -0.2393    0.2775   -0.3762   -0.0159
   121 H14    *s         0.0599   -0.0547    0.0137   -0.0074   -0.0481   -0.0693    0.0643   -0.0704    0.0926    0.0032
   122 H14    *px       -0.0045    0.0007   -0.0018    0.0001   -0.0004    0.0063   -0.0045    0.0044   -0.0069   -0.0008
   123 H14    *py        0.0034   -0.0047    0.0011    0.0063   -0.0040   -0.0032    0.0051    0.0001    0.0051    0.0076
   124 H14    *pz       -0.0101    0.0095    0.0000    0.0040    0.0085    0.0082   -0.0055    0.0092   -0.0097    0.0030
   125 H15    1s        -0.1651    0.1751    0.0929    0.2843    0.1113   -0.1469    0.1889    0.0299    0.2066    0.3268
   126 H15    *s         0.0722   -0.0679    0.0007   -0.0934   -0.0346    0.0482   -0.0466   -0.0069   -0.0667   -0.0879
   127 H15    *px       -0.0033   -0.0005    0.0029    0.0049   -0.0022   -0.0042    0.0051   -0.0008    0.0056    0.0060
   128 H15    *py        0.0063   -0.0065   -0.0031   -0.0013   -0.0030    0.0066   -0.0054    0.0048   -0.0075   -0.0019
   129 H15    *pz        0.0099   -0.0097   -0.0014   -0.0110   -0.0065    0.0006   -0.0028   -0.0044   -0.0014   -0.0107
   130 H16    1s        -0.1044    0.1765   -0.0172   -0.1826   -0.1187    0.3593    0.0779    0.2013    0.4363    0.0305
   131 H16    *s         0.0459   -0.0532    0.0042    0.0481    0.0287   -0.0852   -0.0305   -0.0515   -0.1071   -0.0064
   132 H16    *px       -0.0018    0.0048   -0.0001   -0.0070    0.0037    0.0031    0.0013   -0.0018    0.0041    0.0072
   133 H16    *py        0.0035   -0.0012    0.0014    0.0014   -0.0012   -0.0080   -0.0024   -0.0023   -0.0081   -0.0029
   134 H16    *pz       -0.0079    0.0093    0.0008   -0.0063   -0.0077    0.0092    0.0020    0.0076    0.0117   -0.0028
 
 
      Orbital                21        22        23        24        25        26
      Energy            -0.4829   -0.4798   -0.4493    0.0004    0.0003    0.0083
      Occ. No.           2.0000    2.0000    1.7499    0.7657    1.7491    1.7353
 
     1 C1     1s        -0.0005   -0.0001    0.0048   -0.0004    0.0001   -0.0007
     2 C1     2s         0.0015   -0.0008    0.1379   -0.0051    0.0005   -0.0235
     3 C1     *s         0.0021    0.0013   -0.1045    0.0027    0.0003    0.0277
     4 C1     2px       -0.2533    0.3623    0.1784   -0.0156   -0.0830    0.0317
     5 C1     *px        0.0425   -0.0566   -0.0664   -0.0122    0.0393   -0.0022
     6 C1     2py        0.2945    0.3137   -0.2023    0.0166   -0.0670   -0.0415
     7 C1     *py       -0.0504   -0.0506    0.0832    0.0118    0.0269   -0.0036
     8 C1     2pz        0.2355   -0.0038    0.3815   -0.0188   -0.0005   -0.2066
     9 C1     *pz       -0.0248    0.0024   -0.0905    0.0102   -0.0018    0.0278
    10 C1     *d2-       0.0203    0.0086   -0.0096    0.0052   -0.0059    0.0105
    11 C1     *d1-      -0.0157    0.0023   -0.0240    0.0025    0.0169    0.0253
    12 C1     *d0       -0.0174   -0.0012    0.0301    0.0065   -0.0007    0.0244
    13 C1     *d1+       0.0103    0.0062    0.0220   -0.0021    0.0182   -0.0199
    14 C1     *d2+       0.0066   -0.0329   -0.0011    0.0007    0.0314    0.0003
    15 C2     1s         0.0003    0.0002    0.0021    0.0010    0.0005   -0.0012
    16 C2     2s         0.0401    0.0860   -0.0444    0.0038   -0.0871   -0.0397
    17 C2     *s         0.0098    0.0256   -0.0102   -0.0201   -0.0455   -0.0026
    18 C2     2px        0.0992   -0.2906    0.0071   -0.0003    0.0114    0.0199
    19 C2     *px       -0.0088    0.0299    0.0107    0.0129   -0.0063    0.0079
    20 C2     2py       -0.2395   -0.3131    0.1091    0.0089    0.1400    0.0518
    21 C2     *py        0.0241    0.0378   -0.0045    0.0022   -0.0077   -0.0057
    22 C2     2pz       -0.1861   -0.0519   -0.0578    0.0098   -0.0334   -0.0052
    23 C2     *pz        0.0161    0.0043    0.0022   -0.0091    0.0284    0.0133
    24 C2     *d2-       0.0140    0.0025   -0.0068   -0.0000   -0.0004   -0.0021
    25 C2     *d1-      -0.0139   -0.0015   -0.0101    0.0021   -0.0008    0.0051
    26 C2     *d0       -0.0087   -0.0009    0.0038   -0.0010    0.0037    0.0030
    27 C2     *d1+       0.0056    0.0019   -0.0007    0.0007    0.0027    0.0014
    28 C2     *d2+       0.0053   -0.0216   -0.0025    0.0003    0.0033   -0.0005
    29 H3     1s        -0.3323   -0.0579   -0.0238    0.0124   -0.0065    0.0197
    30 H3     *s         0.0707    0.0102    0.0064    0.0110   -0.0027    0.0161
    31 H3     *px       -0.0026   -0.0072   -0.0001    0.0008   -0.0002   -0.0003
    32 H3     *py        0.0046   -0.0040    0.0023    0.0007    0.0031   -0.0013
    33 H3     *pz        0.0086    0.0017   -0.0002   -0.0019   -0.0009    0.0008
    34 H4     1s         0.1208   -0.3118   -0.0282   -0.0026   -0.0151   -0.0075
    35 H4     *s        -0.0218    0.0577   -0.0080   -0.0067    0.0446   -0.0071
    36 H4     *px       -0.0028    0.0098    0.0012    0.0003    0.0003    0.0003
    37 H4     *py       -0.0059   -0.0039    0.0020    0.0002   -0.0007    0.0018
    38 H4     *pz       -0.0043   -0.0000   -0.0008    0.0006    0.0003   -0.0007
    39 O1     1s        -0.0009   -0.0000    0.0004   -0.0003   -0.0006   -0.0045
    40 O1     2s         0.0015    0.0004   -0.2079    0.1102   -0.0044    0.0039
    41 O1     *s         0.0068   -0.0002   -0.0638    0.0431    0.0021    0.0437
    42 O1     2px       -0.0547    0.0726   -0.4117   -0.0965    0.7012   -0.3421
    43 O1     *px        0.0044   -0.0101   -0.0236   -0.0286    0.0620   -0.0410
    44 O1     2py        0.0650    0.0610    0.4943    0.1138    0.5831    0.4207
    45 O1     *py       -0.0041   -0.0091    0.0264    0.0314    0.0523    0.0529
    46 O1     2pz        0.1014    0.0005   -0.3992    0.1857   -0.0105    0.6757
    47 O1     *pz       -0.0012    0.0010   -0.0155    0.0372    0.0004    0.0605
    48 O1     *d2-      -0.0031    0.0009   -0.0095   -0.0015    0.0019   -0.0049
    49 O1     *d1-      -0.0004   -0.0033   -0.0134   -0.0014   -0.0047    0.0049
    50 O1     *d0       -0.0071   -0.0001    0.0033   -0.0040    0.0000   -0.0077
    51 O1     *d1+       0.0003   -0.0038    0.0108    0.0013   -0.0054   -0.0035
    52 O1     *d2+      -0.0005   -0.0050   -0.0019   -0.0003   -0.0080   -0.0012
    53 O2     1s         0.0002   -0.0000   -0.0000   -0.0047    0.0009   -0.0052
    54 O2     2s         0.0082    0.0024    0.0030   -0.0882    0.0036   -0.0958
    55 O2     *s         0.0063    0.0021   -0.0029   -0.0061   -0.0070    0.0031
    56 O2     2px       -0.0265   -0.0352    0.0640   -0.1172   -0.0787   -0.0622
    57 O2     *px        0.0022   -0.0010   -0.0005   -0.0038   -0.0014    0.0013
    58 O2     2py        0.0375   -0.0361   -0.0757    0.3272   -0.0570    0.0037
    59 O2     *py        0.0005   -0.0024    0.0012    0.0136    0.0023   -0.0010
    60 O2     2pz       -0.0282    0.0092    0.0355    0.9077    0.0118   -0.1311
    61 O2     *pz        0.0052    0.0009    0.0081    0.0443   -0.0003   -0.0043
    62 O2     *d2-       0.0009   -0.0001   -0.0010    0.0046   -0.0002   -0.0003
    63 O2     *d1-       0.0011   -0.0003   -0.0018   -0.0047   -0.0018    0.0053
    64 O2     *d0        0.0008    0.0002   -0.0001    0.0052    0.0007    0.0038
    65 O2     *d1+      -0.0011   -0.0002    0.0018    0.0092   -0.0021   -0.0054
    66 O2     *d2+      -0.0003   -0.0006    0.0009    0.0007    0.0003   -0.0016
    67 H7     1s        -0.0419   -0.0065    0.0548   -0.0322   -0.0083   -0.0743
    68 H7     *s         0.0125    0.0010   -0.0525    0.0778    0.0154    0.0389
    69 H7     *px        0.0030   -0.0004   -0.0055    0.0022    0.0022    0.0086
    70 H7     *py       -0.0013   -0.0015    0.0045    0.0041   -0.0011   -0.0079
    71 H7     *pz       -0.0004    0.0004    0.0049    0.0199   -0.0024   -0.0070
    72 C8     1s        -0.0003   -0.0000    0.0013   -0.0005    0.0000   -0.0015
    73 C8     2s        -0.0849   -0.0040   -0.0120    0.0266    0.0034    0.1286
    74 C8     *s        -0.0243   -0.0010    0.0398    0.0390   -0.0013    0.0380
    75 C8     2px        0.2790   -0.2084    0.0102   -0.0042   -0.0209   -0.0475
    76 C8     *px       -0.0329    0.0201   -0.0096   -0.0082   -0.0167   -0.0013
    77 C8     2py       -0.3308   -0.1914   -0.0165    0.0072   -0.0147    0.0715
    78 C8     *py        0.0393    0.0192    0.0107    0.0113   -0.0134    0.0020
    79 C8     2pz       -0.1600   -0.0004   -0.0737    0.0203    0.0056    0.2192
    80 C8     *pz        0.0203    0.0001   -0.0036   -0.0039   -0.0014   -0.0385
    81 C8     *d2-       0.0102    0.0056    0.0050    0.0000   -0.0007   -0.0002
    82 C8     *d1-      -0.0080    0.0033   -0.0013    0.0020   -0.0008    0.0089
    83 C8     *d0       -0.0159   -0.0011    0.0095   -0.0032   -0.0001   -0.0043
    84 C8     *d1+       0.0045    0.0061    0.0014   -0.0019   -0.0015   -0.0072
    85 C8     *d2+       0.0038   -0.0222    0.0012   -0.0001    0.0030   -0.0006
    86 H9     1s         0.2170    0.2801   -0.0092    0.0143    0.0054    0.0254
    87 H9     *s        -0.0440   -0.0540   -0.0128   -0.0088   -0.0338   -0.0285
    88 H9     *px        0.0080   -0.0021    0.0002   -0.0000    0.0004   -0.0004
    89 H9     *py        0.0048    0.0093   -0.0011    0.0002   -0.0006    0.0015
    90 H9     *pz       -0.0036   -0.0001   -0.0014   -0.0002   -0.0031    0.0015
    91 H10    1s         0.2475   -0.2605   -0.0094    0.0149   -0.0034    0.0253
    92 H10    *s        -0.0499    0.0500   -0.0126   -0.0107    0.0321   -0.0312
    93 H10    *px       -0.0075    0.0080    0.0010   -0.0002   -0.0004   -0.0013
    94 H10    *py       -0.0065   -0.0047   -0.0005    0.0000    0.0006    0.0008
    95 H10    *pz       -0.0030   -0.0006   -0.0014   -0.0004    0.0031    0.0014
    96 H11    1s        -0.1216   -0.0032    0.0770   -0.0226   -0.0034   -0.1466
    97 H11    *s         0.0383    0.0012   -0.0159   -0.0206   -0.0006   -0.0102
    98 H11    *px        0.0034   -0.0044    0.0001   -0.0003   -0.0003   -0.0034
    99 H11    *py       -0.0041   -0.0039   -0.0001    0.0005   -0.0001    0.0042
   100 H11    *pz       -0.0081   -0.0001    0.0012    0.0007    0.0000    0.0004
   101 C12    1s         0.0004   -0.0002    0.0020    0.0011   -0.0006   -0.0010
   102 C12    2s         0.0470   -0.0797   -0.0445    0.0059    0.0845   -0.0462
   103 C12    *s         0.0105   -0.0237   -0.0067   -0.0254    0.0474   -0.0096
   104 C12    2px        0.2337   -0.3452   -0.1109   -0.0109    0.1386   -0.0654
   105 C12    *px       -0.0256    0.0407    0.0036   -0.0070   -0.0091    0.0038
   106 C12    2py       -0.1452   -0.2287    0.0149    0.0048   -0.0180   -0.0089
   107 C12    *py        0.0132    0.0224   -0.0115   -0.0106   -0.0040   -0.0079
   108 C12    2pz       -0.2046    0.0645   -0.0529    0.0164    0.0269   -0.0083
   109 C12    *pz        0.0183   -0.0076    0.0014   -0.0075   -0.0263    0.0152
   110 C12    *d2-       0.0144    0.0082   -0.0070   -0.0000   -0.0008   -0.0022
   111 C12    *d1-      -0.0101    0.0005   -0.0011    0.0001    0.0028   -0.0004
   112 C12    *d0       -0.0095   -0.0000    0.0029   -0.0012   -0.0038    0.0039
   113 C12    *d1+       0.0110    0.0007    0.0106   -0.0027   -0.0008   -0.0046
   114 C12    *d2+       0.0036   -0.0205   -0.0000   -0.0004    0.0031   -0.0011
   115 H13    1s         0.1024    0.3236   -0.0274   -0.0026    0.0136   -0.0072
   116 H13    *s        -0.0194   -0.0617   -0.0080   -0.0055   -0.0425   -0.0044
   117 H13    *px        0.0064   -0.0011   -0.0022   -0.0002   -0.0007   -0.0019
   118 H13    *py        0.0007    0.0106   -0.0007   -0.0003    0.0004    0.0000
   119 H13    *pz       -0.0048   -0.0006   -0.0006    0.0007   -0.0003   -0.0007
   120 H14    1s         0.0581   -0.0483    0.1155   -0.0082   -0.0720    0.0096
   121 H14    *s        -0.0174    0.0181   -0.0066    0.0025   -0.0113    0.0077
   122 H14    *px        0.0056   -0.0074    0.0004   -0.0004    0.0030   -0.0023
   123 H14    *py       -0.0041   -0.0037   -0.0005    0.0001    0.0013   -0.0006
   124 H14    *pz       -0.0016   -0.0008    0.0019    0.0010   -0.0025    0.0005
   125 H15    1s        -0.3469    0.0317   -0.0243    0.0179    0.0074    0.0156
   126 H15    *s         0.0743   -0.0052    0.0071    0.0075    0.0019    0.0174
   127 H15    *px       -0.0033   -0.0058   -0.0021   -0.0012    0.0030    0.0012
   128 H15    *py        0.0044   -0.0060    0.0005   -0.0007   -0.0008    0.0001
   129 H15    *pz        0.0091   -0.0006   -0.0001   -0.0025    0.0008    0.0009
   130 H16    1s         0.0527    0.0480    0.1155   -0.0058    0.0722    0.0017
   131 H16    *s        -0.0152   -0.0187   -0.0061    0.0009    0.0121    0.0079
   132 H16    *px        0.0030   -0.0050    0.0005   -0.0000    0.0021    0.0009
   133 H16    *py       -0.0057   -0.0068   -0.0004    0.0004    0.0029    0.0020
   134 H16    *pz       -0.0015    0.0011    0.0020    0.0007    0.0023    0.0002
--
 
      Von Neumann Entropy (Root   1) =  0.72503
 

      Mulliken population analysis for root number:  1
      -----------------------------------------------
 
 
++    Molecular charges:
      ------------------
 
      Mulliken charges per centre and basis function type
      ---------------------------------------------------
 
                C1      C2      H3      H4      O1      O2      H7      C8      H9      H10     H11     C12   
      1s       2.0041  2.0039  1.2609  1.2650  2.0016  2.0005  0.9598  2.0040  1.2641  1.2650  1.2678  2.0039
      2s       1.4068  1.4522  0.0000  0.0000  1.8372  1.9474  0.0000  1.4507  0.0000  0.0000  0.0000  1.4521
      2px      1.0713  1.1641  0.0000  0.0000  1.5687  1.6455  0.0000  1.1581  0.0000  0.0000  0.0000  1.0927
      2pz      0.8996  1.1714  0.0000  0.0000  1.1747  1.0319  0.0000  1.1003  0.0000  0.0000  0.0000  1.1712
      2py      1.0606  1.1033  0.0000  0.0000  1.4844  1.7192  0.0000  1.1467  0.0000  0.0000  0.0000  1.1738
      *s      -0.2000 -0.4516 -0.3306 -0.3263  0.0524 -0.0776 -0.2915 -0.4494 -0.3296 -0.3287 -0.3193 -0.4522
      *px     -0.0842 -0.1750  0.0073  0.0210  0.0769 -0.0623  0.0396 -0.1755  0.0061  0.0210  0.0067 -0.1800
      *pz     -0.0918 -0.1853  0.0152  0.0055  0.0232  0.0267  0.0110 -0.1909  0.0048  0.0047  0.0170 -0.1869
      *py     -0.0902 -0.1786  0.0088  0.0042  0.0690  0.0008  0.0271 -0.1759  0.0198  0.0049  0.0068 -0.1742
      *d2+     0.0423  0.0178  0.0000  0.0000  0.0008  0.0011  0.0000  0.0173  0.0000  0.0000  0.0000  0.0171
      *d1+     0.0325  0.0055  0.0000  0.0000  0.0023  0.0012  0.0000  0.0084  0.0000  0.0000  0.0000  0.0101
      *d0      0.0331  0.0120  0.0000  0.0000  0.0022  0.0011  0.0000  0.0140  0.0000  0.0000  0.0000  0.0119
      *d1-     0.0376  0.0131  0.0000  0.0000  0.0030  0.0008  0.0000  0.0117  0.0000  0.0000  0.0000  0.0087
      *d2-     0.0258  0.0089  0.0000  0.0000  0.0011  0.0027  0.0000  0.0057  0.0000  0.0000  0.0000  0.0095
      Total    6.1476  5.9617  0.9616  0.9694  8.2975  8.2388  0.7460  5.9252  0.9652  0.9670  0.9789  5.9578
 
      N-E     -0.1476  0.0383  0.0384  0.0306 -0.2975 -0.2388  0.2540  0.0748  0.0348  0.0330  0.0211  0.0422
 
                H13     H14     H15     H16   
      1s       1.2639  1.2708  1.2616  1.2706
      2s       0.0000  0.0000  0.0000  0.0000
      2px      0.0000  0.0000  0.0000  0.0000
      2pz      0.0000  0.0000  0.0000  0.0000
      2py      0.0000  0.0000  0.0000  0.0000
      *s      -0.3290 -0.3229 -0.3322 -0.3232
      *px      0.0052  0.0070  0.0068  0.0067
      *pz      0.0056  0.0164  0.0153  0.0166
      *py      0.0200  0.0075  0.0092  0.0076
      *d2+     0.0000  0.0000  0.0000  0.0000
      *d1+     0.0000  0.0000  0.0000  0.0000
      *d0      0.0000  0.0000  0.0000  0.0000
      *d1-     0.0000  0.0000  0.0000  0.0000
      *d2-     0.0000  0.0000  0.0000  0.0000
[...]
   112 C12    *d0        0.0002   -0.0115    0.0031    0.0014   -0.0028   -0.0029
   113 C12    *d1+       0.0008    0.0086    0.0008   -0.0025    0.0003   -0.0011
   114 C12    *d2+      -0.0213    0.0043   -0.0005   -0.0015    0.0029    0.0017
   115 H13    1s         0.3325    0.1225   -0.0071   -0.0047    0.0064    0.0148
   116 H13    *s        -0.0617   -0.0226   -0.0020   -0.0051   -0.0224   -0.0288
   117 H13    *px       -0.0007    0.0069   -0.0014   -0.0012   -0.0006   -0.0001
   118 H13    *py        0.0109    0.0010   -0.0002   -0.0004    0.0007    0.0003
   119 H13    *pz       -0.0004   -0.0044   -0.0010    0.0002   -0.0009    0.0002
   120 H14    1s        -0.0546    0.0158    0.0268    0.0106   -0.0391   -0.0550
   121 H14    *s         0.0201   -0.0093    0.0047    0.0010   -0.0017   -0.0071
   122 H14    *px       -0.0078    0.0046   -0.0012   -0.0015    0.0020    0.0019
   123 H14    *py       -0.0035   -0.0039   -0.0006   -0.0004    0.0007    0.0008
   124 H14    *pz       -0.0006   -0.0027    0.0001    0.0008   -0.0016   -0.0017
   125 H15    1s         0.0445   -0.3335   -0.0101    0.0110   -0.0048    0.0216
   126 H15    *s        -0.0098    0.0745    0.0061    0.0114    0.0177   -0.0229
   127 H15    *px       -0.0059   -0.0027    0.0014   -0.0000    0.0021    0.0010
   128 H15    *py       -0.0062    0.0040    0.0006   -0.0005   -0.0007   -0.0004
   129 H15    *pz       -0.0006    0.0092    0.0020   -0.0010    0.0010   -0.0012
   130 H16    1s         0.0555    0.0138    0.0258    0.0099    0.0401    0.0557
   131 H16    *s        -0.0202   -0.0091    0.0047    0.0010    0.0021    0.0070
   132 H16    *px       -0.0052    0.0023    0.0009    0.0008    0.0013    0.0014
   133 H16    *py       -0.0066   -0.0056    0.0010    0.0013    0.0019    0.0018
   134 H16    *pz        0.0015   -0.0027   -0.0001    0.0006    0.0014    0.0015
--
 
      Von Neumann Entropy (Root   1) =  0.76004
 

      Mulliken population analysis for root number:  1
      -----------------------------------------------
 
 
++    Molecular charges:
      ------------------
 
      Mulliken charges per centre and basis function type
      ---------------------------------------------------
 
                C1      C2      H3      H4      O1      O2      H7      C8      H9      H10     H11     C12   
      1s       2.0042  2.0039  1.2554  1.2664  2.0016  2.0007  1.0654  2.0039  1.2650  1.2650  1.2639  2.0039
      2s       1.3906  1.4501  0.0000  0.0000  1.8736  1.8976  0.0000  1.4494  0.0000  0.0000  0.0000  1.4501
      2px      1.0691  1.1616  0.0000  0.0000  1.6292  1.7153  0.0000  1.1598  0.0000  0.0000  0.0000  1.0924
      2pz      0.8963  1.1756  0.0000  0.0000  1.2361  1.0569  0.0000  1.1201  0.0000  0.0000  0.0000  1.1754
      2py      1.0617  1.1017  0.0000  0.0000  1.4581  1.5923  0.0000  1.1470  0.0000  0.0000  0.0000  1.1709
      *s      -0.1902 -0.4446 -0.3351 -0.3273  0.0210 -0.0612 -0.3262 -0.4466 -0.3303 -0.3304 -0.3269 -0.4448
      *px     -0.0755 -0.1763  0.0070  0.0209  0.0372  0.0001  0.0305 -0.1756  0.0063  0.0210  0.0068 -0.1798
      *pz     -0.1063 -0.1844  0.0158  0.0055 -0.0084 -0.0072  0.0155 -0.1897  0.0048  0.0047  0.0170 -0.1841
      *py     -0.0786 -0.1780  0.0085  0.0042  0.0299 -0.0294  0.0340 -0.1761  0.0197  0.0050  0.0068 -0.1746
      *d2+     0.0390  0.0179  0.0000  0.0000  0.0007  0.0007  0.0000  0.0175  0.0000  0.0000  0.0000  0.0170
      *d1+     0.0329  0.0053  0.0000  0.0000  0.0028  0.0014  0.0000  0.0082  0.0000  0.0000  0.0000  0.0097
      *d0      0.0361  0.0123  0.0000  0.0000  0.0031  0.0005  0.0000  0.0138  0.0000  0.0000  0.0000  0.0121
      *d1-     0.0371  0.0127  0.0000  0.0000  0.0031  0.0019  0.0000  0.0117  0.0000  0.0000  0.0000  0.0087
      *d2-     0.0244  0.0087  0.0000  0.0000  0.0008  0.0031  0.0000  0.0055  0.0000  0.0000  0.0000  0.0094
      Total    6.1409  5.9665  0.9517  0.9698  8.2888  8.1726  0.8192  5.9489  0.9655  0.9654  0.9677  5.9662
 
      N-E     -0.1409  0.0335  0.0483  0.0302 -0.2888 -0.1726  0.1808  0.0511  0.0345  0.0346  0.0323  0.0338
 
                H13     H14     H15     H16   
      1s       1.2663  1.2708  1.2553  1.2708
      2s       0.0000  0.0000  0.0000  0.0000
      2px      0.0000  0.0000  0.0000  0.0000
      2pz      0.0000  0.0000  0.0000  0.0000
      2py      0.0000  0.0000  0.0000  0.0000
      *s      -0.3273 -0.3237 -0.3352 -0.3238
      *px      0.0055  0.0072  0.0061  0.0069
      *pz      0.0057  0.0161  0.0157  0.0162
      *py      0.0195  0.0074  0.0095  0.0077
      *d2+     0.0000  0.0000  0.0000  0.0000
      *d1+     0.0000  0.0000  0.0000  0.0000
      *d0      0.0000  0.0000  0.0000  0.0000
      *d1-     0.0000  0.0000  0.0000  0.0000
      *d2-     0.0000  0.0000  0.0000  0.0000
      Total    0.9697  0.9778  0.9514  0.9778
 
      N-E      0.0303  0.0222  0.0486  0.0222
 
      Total electronic charge=   50.000000
 
      Total            charge=   -0.000000
--
 
 

      Expectation values of various properties for root number:  1
      -----------------------------------------------------------
 
 
++    Molecular properties:
      ---------------------
 
      Charge (e):
                      =   -0.0000
      Dipole Moment (Debye):
      Origin of the operator (Ang)=    0.0000    0.0000    0.0000
                   X=  3.0851E-01               Y= -4.3803E-01               Z= -7.7304E-01           Total=  9.4055E-01
      Quadrupole Moment (Debye*Ang):
      Origin of the operator (Ang)=    0.0008    0.1166    0.0579
                  XX= -3.8718E+01              XY= -3.7044E-01              XZ=  1.6882E+00              YY= -3.8777E+01
                  YZ= -1.7459E+00              ZZ= -3.4366E+01
      In traceless form (Debye*Ang)
                  XX= -2.1462E+00              XY= -5.5565E-01              XZ=  2.5324E+00              YY= -2.2358E+00
                  YZ= -2.6188E+00              ZZ=  4.3820E+00
--
 
      Von Neumann Entropy (Root   2) =  1.16744
 

      Mulliken population analysis for root number:  2
      -----------------------------------------------
 
 
++    Molecular charges:
      ------------------
 
      Mulliken charges per centre and basis function type
      ---------------------------------------------------
 
                C1      C2      H3      H4      O1      O2      H7      C8      H9      H10     H11     C12   
      1s       2.0042  2.0039  1.2556  1.2666  2.0016  2.0007  1.0643  2.0039  1.2648  1.2648  1.2674  2.0039
      2s       1.3907  1.4492  0.0000  0.0000  1.8762  1.8988  0.0000  1.4514  0.0000  0.0000  0.0000  1.4492
      2px      1.0698  1.1617  0.0000  0.0000  1.3792  1.5585  0.0000  1.1606  0.0000  0.0000  0.0000  1.0874
      2pz      0.8984  1.1758  0.0000  0.0000  1.4729  1.2938  0.0000  1.1263  0.0000  0.0000  0.0000  1.1755
      2py      1.0615  1.0962  0.0000  0.0000  1.4603  1.5155  0.0000  1.1490  0.0000  0.0000  0.0000  1.1709
      *s      -0.1903 -0.4444 -0.3351 -0.3285  0.0209 -0.0621 -0.3233 -0.4469 -0.3297 -0.3298 -0.3265 -0.4445
      *px     -0.0770 -0.1761  0.0070  0.0209  0.0292 -0.0049  0.0287 -0.1755  0.0063  0.0211  0.0069 -0.1798
      *pz     -0.1064 -0.1849  0.0158  0.0055 -0.0003  0.0016  0.0181 -0.1890  0.0048  0.0047  0.0170 -0.1846
      *py     -0.0795 -0.1780  0.0084  0.0043  0.0325 -0.0319  0.0330 -0.1760  0.0197  0.0050  0.0069 -0.1745
      *d2+     0.0348  0.0179  0.0000  0.0000  0.0007  0.0006  0.0000  0.0174  0.0000  0.0000  0.0000  0.0170
      *d1+     0.0314  0.0053  0.0000  0.0000  0.0027  0.0013  0.0000  0.0083  0.0000  0.0000  0.0000  0.0096
      *d0      0.0414  0.0123  0.0000  0.0000  0.0033  0.0008  0.0000  0.0139  0.0000  0.0000  0.0000  0.0121
      *d1-     0.0373  0.0127  0.0000  0.0000  0.0032  0.0019  0.0000  0.0118  0.0000  0.0000  0.0000  0.0087
      *d2-     0.0250  0.0087  0.0000  0.0000  0.0008  0.0031  0.0000  0.0055  0.0000  0.0000  0.0000  0.0094
      Total    6.1413  5.9601  0.9517  0.9688  8.2832  8.1776  0.8209  5.9608  0.9658  0.9658  0.9717  5.9603
 
      N-E     -0.1413  0.0399  0.0483  0.0312 -0.2832 -0.1776  0.1791  0.0392  0.0342  0.0342  0.0283  0.0397
 
                H13     H14     H15     H16   
      1s       1.2665  1.2691  1.2554  1.2690
      2s       0.0000  0.0000  0.0000  0.0000
      2px      0.0000  0.0000  0.0000  0.0000
      2pz      0.0000  0.0000  0.0000  0.0000
      2py      0.0000  0.0000  0.0000  0.0000
      *s      -0.3285 -0.3238 -0.3352 -0.3239
      *px      0.0055  0.0072  0.0060  0.0069
      *pz      0.0057  0.0161  0.0157  0.0162
      *py      0.0195  0.0074  0.0095  0.0076
      *d2+     0.0000  0.0000  0.0000  0.0000
      *d1+     0.0000  0.0000  0.0000  0.0000
      *d0      0.0000  0.0000  0.0000  0.0000
      *d1-     0.0000  0.0000  0.0000  0.0000
      *d2-     0.0000  0.0000  0.0000  0.0000
      Total    0.9687  0.9760  0.9514  0.9758
 
      N-E      0.0313  0.0240  0.0486  0.0242
 
      Total electronic charge=   50.000000
 
      Total            charge=   -0.000000
--
 
 

      Expectation values of various properties for root number:  2
      -----------------------------------------------------------
 
 
++    Molecular properties:
      ---------------------
 
      Charge (e):
                      =   -0.0000
      Dipole Moment (Debye):
      Origin of the operator (Ang)=    0.0000    0.0000    0.0000
                   X=  2.7508E-01               Y= -3.8937E-01               Z= -7.8651E-01           Total=  9.1972E-01
      Quadrupole Moment (Debye*Ang):
      Origin of the operator (Ang)=    0.0008    0.1166    0.0579
                  XX= -3.8080E+01              XY=  3.6852E-01              XZ=  2.1087E+00              YY= -3.8536E+01
                  YZ= -2.4542E+00              ZZ= -3.5568E+01
      In traceless form (Debye*Ang)
                  XX= -1.0280E+00              XY=  5.5278E-01              XZ=  3.1630E+00              YY= -1.7125E+00
                  YZ= -3.6813E+00              ZZ=  2.7404E+00
--
 
      Von Neumann Entropy (Root   3) =  1.19487
 

      Mulliken population analysis for root number:  3
      -----------------------------------------------
 
 
++    Molecular charges:
      ------------------
 
      Mulliken charges per centre and basis function type
      ---------------------------------------------------
 
                C1      C2      H3      H4      O1      O2      H7      C8      H9      H10     H11     C12   
      1s       2.0042  2.0039  1.2557  1.2665  2.0016  2.0007  1.0644  2.0039  1.2649  1.2649  1.2658  2.0039
      2s       1.3908  1.4497  0.0000  0.0000  1.8765  1.8989  0.0000  1.4504  0.0000  0.0000  0.0000  1.4496
      2px      1.0696  1.1616  0.0000  0.0000  1.5220  1.3450  0.0000  1.1602  0.0000  0.0000  0.0000  1.0908
      2pz      0.8990  1.1757  0.0000  0.0000  1.3499  1.5961  0.0000  1.1232  0.0000  0.0000  0.0000  1.1755
      2py      1.0618  1.0999  0.0000  0.0000  1.4555  1.4103  0.0000  1.1480  0.0000  0.0000  0.0000  1.1709
      *s      -0.1903 -0.4445 -0.3361 -0.3279  0.0202 -0.0617 -0.3225 -0.4468 -0.3300 -0.3301 -0.3266 -0.4446
      *px     -0.0754 -0.1762  0.0070  0.0209  0.0328 -0.0130  0.0261 -0.1755  0.0063  0.0210  0.0069 -0.1799
      *pz     -0.1064 -0.1848  0.0158  0.0055 -0.0050  0.0138  0.0213 -0.1894  0.0048  0.0047  0.0170 -0.1845
      *py     -0.0784 -0.1781  0.0084  0.0042  0.0302 -0.0358  0.0315 -0.1760  0.0197  0.0050  0.0069 -0.1747
      *d2+     0.0372  0.0178  0.0000  0.0000  0.0007  0.0005  0.0000  0.0174  0.0000  0.0000  0.0000  0.0170
      *d1+     0.0324  0.0053  0.0000  0.0000  0.0028  0.0013  0.0000  0.0082  0.0000  0.0000  0.0000  0.0097
      *d0      0.0385  0.0123  0.0000  0.0000  0.0034  0.0009  0.0000  0.0139  0.0000  0.0000  0.0000  0.0121
      *d1-     0.0373  0.0127  0.0000  0.0000  0.0032  0.0019  0.0000  0.0118  0.0000  0.0000  0.0000  0.0087
      *d2-     0.0247  0.0087  0.0000  0.0000  0.0008  0.0031  0.0000  0.0055  0.0000  0.0000  0.0000  0.0094
      Total    6.1452  5.9639  0.9509  0.9693  8.2946  8.1619  0.8208  5.9550  0.9657  0.9656  0.9700  5.9638
 
      N-E     -0.1452  0.0361  0.0491  0.0307 -0.2946 -0.1619  0.1792  0.0450  0.0343  0.0344  0.0300  0.0362
 
                H13     H14     H15     H16   
      1s       1.2665  1.2698  1.2555  1.2698
      2s       0.0000  0.0000  0.0000  0.0000
      2px      0.0000  0.0000  0.0000  0.0000
      2pz      0.0000  0.0000  0.0000  0.0000
      2py      0.0000  0.0000  0.0000  0.0000
      *s      -0.3279 -0.3238 -0.3361 -0.3238
      *px      0.0055  0.0072  0.0061  0.0069
      *pz      0.0057  0.0161  0.0157  0.0162
      *py      0.0195  0.0074  0.0095  0.0076
      *d2+     0.0000  0.0000  0.0000  0.0000
      *d1+     0.0000  0.0000  0.0000  0.0000
      *d0      0.0000  0.0000  0.0000  0.0000
      *d1-     0.0000  0.0000  0.0000  0.0000
      *d2-     0.0000  0.0000  0.0000  0.0000
      Total    0.9692  0.9768  0.9507  0.9767
 
      N-E      0.0308  0.0232  0.0493  0.0233
 
      Total electronic charge=   50.000000
 
      Total            charge=   -0.000000
--
 
 

      Expectation values of various properties for root number:  3
      -----------------------------------------------------------
 
 
++    Molecular properties:
      ---------------------
 
      Charge (e):
                      =   -0.0000
      Dipole Moment (Debye):
      Origin of the operator (Ang)=    0.0000    0.0000    0.0000
                   X=  2.5787E-01               Y= -3.6239E-01               Z= -6.5313E-01           Total=  7.9020E-01
      Quadrupole Moment (Debye*Ang):
      Origin of the operator (Ang)=    0.0008    0.1166    0.0579
                  XX= -3.8076E+01              XY=  3.4930E-01              XZ=  2.0299E+00              YY= -3.8511E+01
                  YZ= -2.3294E+00              ZZ= -3.5304E+01
      In traceless form (Debye*Ang)
                  XX= -1.1690E+00              XY=  5.2395E-01              XZ=  3.0449E+00              YY= -1.8210E+00
                  YZ= -3.4942E+00              ZZ=  2.9900E+00
--
 
      Von Neumann Entropy (Root   4) =  0.97610
 

      Mulliken population analysis for root number:  4
      -----------------------------------------------
 
 
++    Molecular charges:
      ------------------
 
      Mulliken charges per centre and basis function type
      ---------------------------------------------------
 
                C1      C2      H3      H4      O1      O2      H7      C8      H9      H10     H11     C12   
      1s       2.0042  2.0039  1.2558  1.2667  2.0016  2.0007  1.0636  2.0039  1.2647  1.2647  1.2691  2.0039
      2s       1.3909  1.4487  0.0000  0.0000  1.8783  1.8997  0.0000  1.4523  0.0000  0.0000  0.0000  1.4488
      2px      1.0701  1.1618  0.0000  0.0000  1.2757  1.1886  0.0000  1.1609  0.0000  0.0000  0.0000  1.0855
      2pz      0.9002  1.1758  0.0000  0.0000  1.5789  1.8340  0.0000  1.1292  0.0000  0.0000  0.0000  1.1756
      2py      1.0615  1.0941  0.0000  0.0000  1.4655  1.3353  0.0000  1.1499  0.0000  0.0000  0.0000  1.1709
      *s      -0.1903 -0.4443 -0.3360 -0.3291  0.0201 -0.0625 -0.3205 -0.4470 -0.3295 -0.3295 -0.3263 -0.4444
      *px     -0.0771 -0.1761  0.0070  0.0209  0.0250 -0.0179  0.0244 -0.1754  0.0063  0.0211  0.0069 -0.1799
      *pz     -0.1068 -0.1851  0.0158  0.0055  0.0024  0.0206  0.0238 -0.1886  0.0048  0.0047  0.0171 -0.1848
      *py     -0.0795 -0.1782  0.0084  0.0043  0.0328 -0.0384  0.0306 -0.1759  0.0197  0.0050  0.0069 -0.1745
      *d2+     0.0330  0.0179  0.0000  0.0000  0.0007  0.0004  0.0000  0.0174  0.0000  0.0000  0.0000  0.0170
      *d1+     0.0309  0.0052  0.0000  0.0000  0.0028  0.0013  0.0000  0.0083  0.0000  0.0000  0.0000  0.0096
      *d0      0.0437  0.0123  0.0000  0.0000  0.0035  0.0011  0.0000  0.0139  0.0000  0.0000  0.0000  0.0121
      *d1-     0.0374  0.0127  0.0000  0.0000  0.0032  0.0019  0.0000  0.0119  0.0000  0.0000  0.0000  0.0086
      *d2-     0.0252  0.0087  0.0000  0.0000  0.0008  0.0031  0.0000  0.0055  0.0000  0.0000  0.0000  0.0094
      Total    6.1435  5.9574  0.9510  0.9683  8.2912  8.1679  0.8219  5.9663  0.9660  0.9659  0.9736  5.9578
 
      N-E     -0.1435  0.0426  0.0490  0.0317 -0.2912 -0.1679  0.1781  0.0337  0.0340  0.0341  0.0264  0.0422
 
                H13     H14     H15     H16   
      1s       1.2666  1.2683  1.2556  1.2682
      2s       0.0000  0.0000  0.0000  0.0000
      2px      0.0000  0.0000  0.0000  0.0000
      2pz      0.0000  0.0000  0.0000  0.0000
      2py      0.0000  0.0000  0.0000  0.0000
      *s      -0.3291 -0.3238 -0.3360 -0.3239
      *px      0.0055  0.0071  0.0060  0.0069
      *pz      0.0057  0.0161  0.0157  0.0162
      *py      0.0195  0.0074  0.0095  0.0076
      *d2+     0.0000  0.0000  0.0000  0.0000
      *d1+     0.0000  0.0000  0.0000  0.0000
      *d0      0.0000  0.0000  0.0000  0.0000
      *d1-     0.0000  0.0000  0.0000  0.0000
      *d2-     0.0000  0.0000  0.0000  0.0000
      Total    0.9682  0.9751  0.9508  0.9749
 
      N-E      0.0318  0.0249  0.0492  0.0251
 
      Total electronic charge=   50.000000
 
      Total            charge=   -0.000000
--
 
 

      Expectation values of various properties for root number:  4
      -----------------------------------------------------------
 
 
++    Molecular properties:
      ---------------------
 
      Charge (e):
                      =   -0.0000
      Dipole Moment (Debye):
      Origin of the operator (Ang)=    0.0000    0.0000    0.0000
                   X=  2.2270E-01               Y= -3.1299E-01               Z= -6.8070E-01           Total=  7.8161E-01
      Quadrupole Moment (Debye*Ang):
      Origin of the operator (Ang)=    0.0008    0.1166    0.0579
                  XX= -3.7467E+01              XY=  1.0784E+00              XZ=  2.4007E+00              YY= -3.8288E+01
                  YZ= -2.9668E+00              ZZ= -3.6390E+01
      In traceless form (Debye*Ang)
                  XX= -1.2796E-01              XY=  1.6176E+00              XZ=  3.6011E+00              YY= -1.3599E+00
                  YZ= -4.4501E+00              ZZ=  1.4879E+00
--
 
 
      Input file to MOLDEN was generated!
 
 
      Input file to MOLDEN was generated!
 
 
      Input file to MOLDEN was generated!
 
 
      Input file to MOLDEN was generated!
 
 
      Input file to MOLDEN was generated!
 
      Average orbitals are written to the RASORB file
      Natural orbitals for root   1 are written to the RASORB.1 file
      Natural orbitals for root   2 are written to the RASORB.2 file
      Natural orbitals for root   3 are written to the RASORB.3 file
      Natural orbitals for root   4 are written to the RASORB.4 file
      Spin density orbitals for root   1 are written to the SPDORB.1 file
      Spin density orbitals for root   2 are written to the SPDORB.2 file
      Spin density orbitals for root   3 are written to the SPDORB.3 file
      Spin density orbitals for root   4 are written to the SPDORB.4 file
 
--- Stop Module: last_energy at Wed Jul  8 12:55:11 2026 /rc=_RC_ALL_IS_WELL_ ---
*** files: relaxed_scan_tbhp_casscf.rasscf.molden relaxed_scan_tbhp_casscf.rasscf.molden.1 relaxed_scan_tbhp_casscf.rasscf.molden.2 relaxed_scan_tbhp_casscf.rasscf.molden.3
           relaxed_scan_tbhp_casscf.rasscf.molden.4 relaxed_scan_tbhp_casscf.RasOrb relaxed_scan_tbhp_casscf.RasOrb.1 relaxed_scan_tbhp_casscf.RasOrb.2
           relaxed_scan_tbhp_casscf.RasOrb.3 relaxed_scan_tbhp_casscf.RasOrb.4 relaxed_scan_tbhp_casscf.SpdOrb.1 relaxed_scan_tbhp_casscf.SpdOrb.2 relaxed_scan_tbhp_casscf.SpdOrb.3
           relaxed_scan_tbhp_casscf.SpdOrb.4 xmldump
    saved to directory /vscratch/grp-cyberwksp21/hclifford/openmolcas/PES/runs_relaxed_s1/R_2p00
--- Module last_energy spent 35 seconds ---

>>> END DO

.##################.
.# Happy landing! #.
.##################.

    Timing: Wall=1910.75 User=1494.56 System=304.14
