   This run of MOLCAS is using the pymolcas driver

                             OPE
                             OPE          NMOL  CASOP  ENMOLC A   SO
                 OPE        NMOLC        AS  OP EN  MO LC     AS  OP
                OPENM       OL CA        SO  PE NM  OL CA     SOP EN
                OP EN      MO   LC       AS  OP ENMOL  CASO   PENMOL
                OP  EN     MO   LC       AS  OP EN     MO     LC ASO
               OP   E  NMOL  C  AS       OP  EN MO     LC     AS  OP
               OP  E   NMO   LC AS        OPEN  MO     LCASOP EN   M
               O  PEN   MO  LCA  SO
            OPE   NMO   L   CAS    OP
        OPENMOL  CASOP     ENMOL   CASOPE
     OPENMOLCA   SOPENMOLCASOPEN   MOLCASOPE
    OPENMOLCAS   OP           EN   MOL    CAS
    OPENMOLCAS       OP  ENM        O     LCA
    OPENMOLCAS    OPEN  MOLCASO     P  E  NMO
    OPENMOLCAS     OP               E  N  MOL
    OPENMOLCA   SO           PENM   O  L  CAS    OPEN    MO    LCAS
    OPENMOLCA   SOP           ENM   O  L  CAS   OP  EN  MOLC  AS   O
    OPENMOLCA   SOPE           NM      O  LCA   S      OP  EN MO
    OPENMOLC                AS         O  PEN   M      OL  CA  SOPE
    OPENMO        LCASOPE  NMOL        C  ASO   P      ENMOLC     AS
    OPE     NMO      LCA  SO     P     E   NM   OL  CA SO  PE N   MO
          OPENMOLCA            SOPE   NMO        LCAS  O    P  ENMO
     OPENMOLCASOPENMOLCASOPENMOLCASOPENMOLCA
        OPENMOLCASOPENMOLCASOPENMOLCASOPE
            OPENMOLCASOPENMOLCASOPENM
               OPENMOLCASOPENMOLCA        version: v23.10 ?
                   OPENMOLCASO
                       OPE                tag:

 OpenMolcas is free software; you can redistribute it and/or modify it
 under the terms of the GNU Lesser General Public License version 2.1.
 OpenMolcas is distributed in the hope that it will be useful, but it
 is provided "as is" and without any express or implied warranties.
 For more details see the full text of the license in the file
 LICENSE or in <http://www.gnu.org/licenses/>.

                 Copyright (C) The OpenMolcas Authors
           For the author list and the recommended citation,
                   consult the file CONTRIBUTORS.md

           *************************************************
           * pymolcas version py2.25                       *
           *   build 2b27fa14244bdc32cb1957e6230cd793      *
           *   (after the EMIL interpreter by V. Veryazov) *
           *************************************************

configuration info
------------------
Host name: cpn-h22-29.core.ccr.buffalo.edu (Linux)
C Compiler ID: Intel
C flags: -O2 -xCore-AVX512 -ftz -fp-speculation=safe -fp-model source -std=gnu99 -gcc-sys -qopenmp
Fortran Compiler ID: Intel
Fortran flags: -O2 -xCore-AVX512 -ftz -fp-speculation=safe -fp-model source  -fpp -i8 -heap-arrays -qopenmp
Definitions: _MOLCAS_;_I8_;_LINUX_;_MOLCAS_MPP_;_SCALAPACK_;_GA_
Parallel: ON (GA=ON)


   -----------------------------------------------------------------------------------------------------------------------------------------------------
  |
  |           Project: relaxed_scan_tbhp_casscf
  |    Submitted from: /vscratch/grp-cyberwksp21/hclifford/openmolcas/PES/runs_relaxed_s1/R_2p40
  |      Scratch area: /vscratch/grp-cyberwksp21/hclifford/openmolcas/PES/runs_relaxed_s1/R_2p40/molcas_scratch_R_2p40/relaxed_scan_tbhp_casscf
  |   Save outputs to: /vscratch/grp-cyberwksp21/hclifford/openmolcas/PES/runs_relaxed_s1/R_2p40
  |            Molcas: /cvmfs/soft.ccr.buffalo.edu/versions/2023.01/easybuild/software/avx512/MPI/intel/2022.0.1/impi/2021.5.0/openmolcas/23.10
  |
  | Scratch area is empty
  |
  |    MOLCAS_DRIVER = /cvmfs/soft.ccr.buffalo.edu/versions/2023.01/easybuild/software/avx512/MPI/intel/2022.0.1/impi/2021.5.0/openmolcas/23.10/pymolcas
  |    MOLCAS_MOLDEN = ON
  |    MOLCAS_NPROCS = 1
  |     MOLCAS_PRINT = NORMAL
  |    MOLCAS_SOURCE = /cvmfs/soft.ccr.buffalo.edu/versions/2023.01/easybuild/software/avx512/MPI/intel/2022.0.1/impi/2021.5.0/openmolcas/23.10
  | MOLCAS_STRUCTURE = 0
  |
   -----------------------------------------------------------------------------------------------------------------------------------------------------

++ ---------   Input file   ---------

&GATEWAY
  Coord = tbhp.xyz
  Basis = cc-pVDZ
  Group = NoSymm
  Constraints
    rOO = Bond O1 O2
  Values
    rOO = 2.40 Angstrom
  End of Constraints

>>> DO WHILE

  &SEWARD

  &RASSCF
    Spin = 1
    NActEl = 6 0 0
    Inactive = 22
    Ras2 = 4
    CiRoot = 4 4 1
    RlxRoot = 2
    LumOrb
    LevShift = 1.0

  &ALASKA

  &SLAPAF

>>> END DO

-- ----------------------------------

--- Start Module: gateway at Wed Jul  8 13:20:12 2026 ---
 
()()()()()()()()()()()()()()()()()()()()()()()()()()()()()()()()()()()()()()()()()()()()()()()()()()

                                              &GATEWAY

                       only a single process is used, running in SERIAL mode
                        available to each process: 12 GB of memory, 1 thread
                                            pid: 234978
()()()()()()()()()()()()()()()()()()()()()()()()()()()()()()()()()()()()()()()()()()()()()()()()()()
 
 
++    Symmetry information:
      ---------------------
 
                    Character Table for C1 
 
                             E  
                    a        1  x, y, xy, Rz, z, xz, Ry, yz, Rx, I
--
 
 
++    Basis set information:
      ----------------------
 
 
      Basis set label: C.CC-PVDZ.........
 
      Electronic valence basis set:
      ------------------
      Associated Effective Charge   6.000000 au
      Associated Actual Charge      6.000000 au
      Nuclear Model: Point charge
 
      Shell  nPrim  nBasis  Cartesian Spherical Contaminant
         s       9       3        X                  
         p       4       2        X                  
         d       1       1                 X         
 
 
      Basis set label: H.CC-PVDZ.........
 
      Electronic valence basis set:
      ------------------
      Associated Effective Charge   1.000000 au
      Associated Actual Charge      1.000000 au
      Nuclear Model: Point charge
 
      Shell  nPrim  nBasis  Cartesian Spherical Contaminant
         s       4       2        X                  
         p       1       1        X                  
 
 
      Basis set label: O.CC-PVDZ.........
 
      Electronic valence basis set:
      ------------------
      Associated Effective Charge   8.000000 au
      Associated Actual Charge      8.000000 au
      Nuclear Model: Point charge
 
      Shell  nPrim  nBasis  Cartesian Spherical Contaminant
         s       9       3        X                  
         p       4       2        X                  
         d       1       1                 X         
 
 
      Basis set label: H.CC-PVDZ.........
 
      Electronic valence basis set:
      ------------------
      Associated Effective Charge   1.000000 au
      Associated Actual Charge      1.000000 au
      Nuclear Model: Point charge
 
      Shell  nPrim  nBasis  Cartesian Spherical Contaminant
         s       4       2        X                  
         p       1       1        X                  
 
 
      Basis set label: C.CC-PVDZ.........
 
      Electronic valence basis set:
      ------------------
      Associated Effective Charge   6.000000 au
      Associated Actual Charge      6.000000 au
      Nuclear Model: Point charge
 
      Shell  nPrim  nBasis  Cartesian Spherical Contaminant
         s       9       3        X                  
         p       4       2        X                  
         d       1       1                 X         
 
 
      Basis set label: H.CC-PVDZ.........
 
      Electronic valence basis set:
      ------------------
      Associated Effective Charge   1.000000 au
      Associated Actual Charge      1.000000 au
      Nuclear Model: Point charge
 
      Shell  nPrim  nBasis  Cartesian Spherical Contaminant
         s       4       2        X                  
         p       1       1        X                  
 
 
      Basis set label: C.CC-PVDZ.........
 
      Electronic valence basis set:
      ------------------
      Associated Effective Charge   6.000000 au
      Associated Actual Charge      6.000000 au
      Nuclear Model: Point charge
 
      Shell  nPrim  nBasis  Cartesian Spherical Contaminant
         s       9       3        X                  
         p       4       2        X                  
         d       1       1                 X         
 
 
      Basis set label: H.CC-PVDZ.........
 
      Electronic valence basis set:
      ------------------
      Associated Effective Charge   1.000000 au
      Associated Actual Charge      1.000000 au
      Nuclear Model: Point charge
 
      Shell  nPrim  nBasis  Cartesian Spherical Contaminant
         s       4       2        X                  
         p       1       1        X                  
--
 
 
++    Molecular structure info:
      -------------------------
 
                    ************************************************ 
                    **** Cartesian Coordinates / Bohr, Angstrom **** 
                    ************************************************ 
 
     Center  Label                x              y              z                     x              y              z
        1      C1              -0.021542       0.141236      -0.863799             -0.011400       0.074739      -0.457103
        2      C2               0.831168       2.894138      -0.976131              0.439835       1.531512      -0.516547
        3      H3               0.063091       3.973818       0.597379              0.033386       2.102854       0.316120
        4      H4               2.889618       3.006368      -0.897928              1.529120       1.590901      -0.475163
        5      O1               1.048443      -1.087412       1.282909              0.554812      -0.575434       0.678886
        6      O2              -0.588709       0.993074       4.965387             -0.311531       0.525512       2.627570
        7      H7               1.263745      -0.351457       4.767996              0.668745      -0.185983       2.523115
        8      C8               1.105388      -1.375518      -3.048072              0.584946      -0.727893      -1.612970
        9      H9               0.556259      -3.358152      -2.914267              0.294360      -1.777058      -1.542164
       10      H10              3.164481      -1.268188      -3.022044              1.674571      -0.671096      -1.599197
       11      H11              0.434286      -0.629140      -4.848329              0.229814      -0.332927      -2.565625
       12      C12             -2.895285      -0.095819      -0.822797             -1.532119      -0.050705      -0.435405
       13      H13             -3.445010      -2.076354      -0.655641             -1.823021      -1.098759      -0.346950
       14      H14             -3.697104       0.662660      -2.566952             -1.956423       0.350665      -1.358373
       15      H15             -3.702320       0.934206       0.764700             -1.959183       0.494360       0.404662
       16      H16              0.198038       3.766686      -2.736247              0.104797       1.993244      -1.447959
 
                    ************************************************* 
                    **** InterNuclear Distances / Bohr, Angstrom **** 
                    ************************************************* 
 
     Atom centers         Bohr        Angstrom
    3 H3        2 C2      2.057082        1.088561
   15 H15      12 C12     2.057280        1.088666
   11 H11       8 C8      2.061161        1.090720
    9 H9        8 C8      2.061622        1.090963
   10 H10       8 C8      2.062053        1.091191
   13 H13      12 C12     2.062197        1.091268
    4 H4        2 C2      2.062990        1.091687
   14 H14      12 C12     2.064025        1.092235
   16 H16       2 C2    
    7 H7        6 O2      2.297458        1.215762
    5 O1        1 C1      2.694958        1.426110
   12 C12       1 C1      2.883795        1.526039
    2 C2        1 C1      2.884130        1.526216
    8 C8        1 C1      2.888177        1.528357
   15 H15      13 H13     3.338719        1.766774
    4 H4        3 H3      3.340833        1.767893
   15 H15      14 H14     3.342704        1.768883
   16 H16       3 H3      3.342780        1.768923
   10 H10       9 H9      3.344008        1.769573
   11 H11      10 H10     3.346292        1.770781
   16 H16       4 H4      3.346954        1.771132
   11 H11       9 H9      3.347086        1.771202
   14 H14      13 H13     3.349457        1.772456
    7 H7        5 O1      3.568447        1.888341
   11 H11       1 C1      4.083839        2.161075
   13 H13       1 C1      4.084258        2.161296
   14 H14       1 C1      4.084405        2.161374
    4 H4        1 C1      4.084728        2.161545
   16 H16       1 C1      4.086339        2.162397
    9 H9        1 C1      4.096827        2.167948
   10 H10       1 C1      4.098200        2.168674
   15 H15       1 C1      4.102308        2.170848
    3 H3        1 C1      4.102547        2.170974
    8 C8        5 O1      4.340927        2.297119
    6 O2        5 O1      4.535343        2.400000
   12 C12       5 O1      4.579328        2.423276
    5 O1        2 C2      4.582926        2.425180
   12 C12       8 C8      4.753406        2.515394
    8 C8        2 C2      4.753746        2.515574
   13 H13       9 H9      4.770174        2.524267
   12 C12       2 C2      4.780148        2.529545
   10 H10       4 H4      4.781134        2.530067
    9 H9        5 O1      4.797374        2.538661
   10 H10       5 O1      4.800304        2.540212
   15 H15       3 H3      4.842061        2.562308
   16 H16      11 H11     4.882622        2.583772
   14 H14      11 H11     4.893037        2.589284
   16 H16      14 H14     4.983550        2.637181
    5 O1        4 H4      4.990492        2.640855
   13 H13       5 O1      4.992705        2.642026
   13 H13       8 C8      5.188547        2.745661
   15 H15       5 O1      5.188952        2.745875
   12 C12       9 H9      5.189434        2.746130
   10 H10       2 C2      5.191827        2.747397
    8 C8        4 H4      5.196876        2.750068
    5 O1        3 H3      5.201626        2.752582
   12 C12       3 H3      5.227890        2.766480
   15 H15       6 O2      5.229131        2.767137
   16 H16       8 C8      5.230945        2.768097
   15 H15       2 C2      5.236825        2.771209
   14 H14       8 C8      5.239235        2.772484
   11 H11       2 C2      5.250231        2.778302
   12 C12      11 H11     5.251227        2.778830
   14 H14       2 C2      5.292963        2.800915
   16 H16      12 C12     5.305553        2.807577
    6 O2        3 H3      5.328148        2.819534
--
 
 
            Nuclear Potential Energy            252.21975026 au
 
--- Stop Module: gateway at Wed Jul  8 13:20:13 2026 /rc=_RC_ALL_IS_WELL_ ---
*** files: xmldump
    saved to directory /vscratch/grp-cyberwksp21/hclifford/openmolcas/PES/runs_relaxed_s1/R_2p40

--- Start Module: seward at Wed Jul  8 13:20:13 2026 ---
 
()()()()()()()()()()()()()()()()()()()()()()()()()()()()()()()()()()()()()()()()()()()()()()()()()()

                                              &SEWARD

                       only a single process is used, running in SERIAL mode
                        available to each process: 12 GB of memory, 1 thread
                                            pid: 234982
()()()()()()()()()()()()()()()()()()()()()()()()()()()()()()()()()()()()()()()()()()()()()()()()()()
 
               SEWARD will generate:
                  Multipole Moment integrals up to order  2
                  Kinetic Energy integrals
                  Nuclear Attraction integrals (point charge)
                  One-Electron Hamiltonian integrals
                  Velocity integrals
                  Orbital angular momentum around (-0.0744  0.2438  0.2199 )
                  Velocity quadrupole around (-0.0744  0.2438  0.2199 )
                  Two-Electron Repulsion integrals
 
                   Integrals are discarded if absolute value <: 0.10E-13
                   Integral cutoff threshold is set to       <: 0.10E-15
 
            Nuclear Potential Energy            252.21975026 au
 
 
      Basis set specifications :
      Symmetry species         a  
      Basis functions          134
 
 
      Input file to MOLDEN was generated!
 
--- Stop Module: seward at Wed Jul  8 13:20:31 2026 /rc=_RC_ALL_IS_WELL_ ---
*** files: relaxed_scan_tbhp_casscf.GssOrb relaxed_scan_tbhp_casscf.guessorb.h5 relaxed_scan_tbhp_casscf.guessorb.molden xmldump
    saved to directory /vscratch/grp-cyberwksp21/hclifford/openmolcas/PES/runs_relaxed_s1/R_2p40
--- Module seward spent 17 seconds ---

*** symbolic link created: INPORB -> relaxed_scan_tbhp_casscf.GssOrb
--- Start Module: rasscf at Wed Jul  8 13:20:31 2026 ---
 
()()()()()()()()()()()()()()()()()()()()()()()()()()()()()()()()()()()()()()()()()()()()()()()()()()

                                              &RASSCF

                       only a single process is used, running in SERIAL mode
                        available to each process: 12 GB of memory, 1 thread
                                            pid: 234986
()()()()()()()()()()()()()()()()()()()()()()()()()()()()()()()()()()()()()()()()()()()()()()()()()()
 
 
      Header of the ONEINT file:
      --------------------------
      
      Integrals generated by Gateway/Seward, Wed Jul  8 13:20:13 2026
 
 
      OrdInt status: non-squared
 
 
      Cartesian coordinates in Angstrom:
      -----------------------------------------------------
      No.  Label        X            Y            Z        
      -----------------------------------------------------
       1   C1        -0.01139969   0.07473874  -0.45710275
       2   C2         0.43983524   1.53151203  -0.51654652
       3   H3         0.03338615   2.10285377   0.31611957
       4   H4         1.52912019   1.59090129  -0.47516326
       5   O1         0.55481218  -0.57543356   0.67888606
       6   O2        -0.31153124   0.52551237   2.62756950
       7   H7         0.66874488  -0.18598325   2.52311476
       8   C8         0.58494633  -0.72789299  -1.61297035
       9   H9         0.29435984  -1.77705775  -1.54216375
      10   H10        1.67457144  -0.67109611  -1.59919702
      11   H11        0.22981418  -0.33292659  -2.56562545
      12   C12       -1.53211881  -0.05070542  -0.43540531
      13   H13       -1.82302072  -1.09875916  -0.34695030
      14   H14       -1.95642321   0.35066475  -1.35837253
      15   H15       -1.95918318   0.49436032   0.40466163
      16   H16        0.10479738   1.99324446  -1.44795932
      -----------------------------------------------------
      Nuclear repulsion energy =  252.21975026
 
++    Wave function specifications:
      -----------------------------
 
      Number of closed shell electrons          44
      Number of electrons in active shells       6
      Max number of holes in RAS1 space          0
      Max nr of electrons in RAS3 space          0
      Number of inactive orbitals               22
      Number of active orbitals                  4
      Number of secondary orbitals             108
      Spin quantum number                      0.0
      State symmetry                             1
--
 
++    Orbital specifications:
      -----------------------
 
      Symmetry species                           1
                                                 a
      Frozen orbitals                            0
      Inactive orbitals                         22
      Active orbitals                            4
      RAS1 orbitals                              0
      RAS2 orbitals                              4
      RAS3 orbitals                              0
      Secondary orbitals                       108
      Deleted orbitals                           0
      Number of basis functions                134
--
 
++    CI expansion specifications:
      ----------------------------
 
      Number of CSFs                            10
      Number of determinants                    10
      Number of root(s) required                 4
      Root chosen for geometry opt.              2
      CI roots used                              1     2     3     4
      weights                                0.250 0.250 0.250 0.250
      highest root included in the CI            4
      max. size of the explicit Hamiltonian     10
--
 
++    Optimization specifications:
      ----------------------------
 
      RASSCF algorithm: Conventional
      Maximum number of macro iterations       200
      Maximum number of SX iterations          100
      Threshold for RASSCF energy            0.100E-07
      Threshold for max MO rotation          0.100E+00
      Threshold for max BLB element          0.100E-03
      Level shift parameter                  0.100E+01
      Make Quasi-Newton update
--
 
      The MO-coefficients are taken from the file:
      INPORB                                                                                                                                                                                                                                                          
      Title:Guess orbitals                                                                 
 
      Total molecular charge    0.00
 
      ************************************************************************************************************************
      *                                                                                                                      *
      *                                            Wave function control section                                             *
      *                                                                                                                      *
      ************************************************************************************************************************
 
 
                                         RASSCF iterations: Energy and convergence statistics
                                         ----------------------------------------------------
 
      Iter CI   SX   CI       RASSCF       Energy    max ROT     max BLB   max BLB  Level Ln srch  Step   QN   Walltime
          iter iter root      energy       change     param      element    value   shift minimum  type update hh:mm:ss
 Nr of preliminary CI iterations:   1
        1   1  100    0  -305.58128789    0.00E+00   0.13E+00*  20 110 1 -0.30E+00*  1.52   0.00    SX    NO    0:00:03
        2   1   88    0  -306.31716873   -0.74E+00*  0.91E-01   10  39 1  0.14E+00*  1.20   0.00    SX    NO    0:00:01
        3   1  100    0  -306.50855016   -0.19E+00*  0.56E-01   10  39 1  0.71E-01*  1.06   0.00    SX    NO    0:00:02
        4   1   73    0  -306.56554790   -0.57E-01* -0.53E-01   20  24 1  0.47E-01*  1.01   0.00    SX    NO    0:00:01
        5   1   29    0  -306.58917423   -0.24E-01* -0.60E-01   20  24 1  0.36E-01*  0.97   2.50    LS   YES    0:00:01
        6   1   28    0  -306.60496644   -0.16E-01* -0.85E-01   20  24 1  0.23E-01*  0.94   1.84    QN   YES    0:00:01
        7   1    9    0  -306.61516215   -0.10E-01* -0.13E+00*  16  27 1 -0.21E-01*  0.93   2.33    QN   YES    0:00:01
        8   1   10    0  -306.62621069   -0.11E-01* -0.18E+00*  16  27 1 -0.27E-01*  0.91   2.50    QN   YES    0:00:01
        9   1   15    0  -306.63886597   -0.13E-01* -0.33E+00*  16  27 1 -0.28E-01*  0.88   2.50    QN   YES    0:00:01
       10   1  100    0  -306.67899376   -0.40E-01* -0.33E+00*  19  23 1  0.56E-01*  0.87   1.21    QN   YES    0:00:02
       11   1  100    0  -306.66707159    0.12E-01*  0.43E-01   22  28 1  0.58E-01*  0.85   0.35    SX   YES    0:00:02
       12   1   78    0  -306.70459257   -0.38E-01*  0.15E+00*  22  28 1  0.36E-01*  0.87   2.13    QN   YES    0:00:01
       13   1   27    0  -306.77305123   -0.68E-01*  0.84E-01   20  24 1  0.28E-01*  0.88   1.33    QN   YES    0:00:01
       14   1   23    0  -306.79994558   -0.27E-01*  0.10E+00   20  24 1  0.30E-01*  0.87   1.56    QN   YES    0:00:01
       15   1   15    0  -306.82051129   -0.21E-01*  0.97E-01   24 110 1  0.30E-01*  0.87   1.62    QN   YES    0:00:01
       16   1   41    0  -306.83589281   -0.15E-01* -0.91E-01    8  27 1  0.28E-01*  0.86   1.91    QN   YES    0:00:01
       17   1   41    0  -306.84678884   -0.11E-01* -0.39E-01   17  23 1 -0.25E-01*  0.86   1.56    SX   YES    0:00:01
       18   1    9    0  -306.86555050   -0.19E-01* -0.44E-01   20  24 1  0.17E-01*  0.86   2.50    LS   YES    0:00:01
       19   1   20    0  -306.87756433   -0.12E-01* -0.75E-01   20  26 1 -0.15E-01*  0.86   1.66    QN   YES    0:00:01
       20   1    8    0  -306.88395227   -0.64E-02*  0.44E-01   12  26 1  0.10E-01*  0.86   1.45    QN   YES    0:00:01
       21   1    8    0  -306.88667684   -0.27E-02*  0.38E-01   22  26 1 -0.10E-01*  0.86   1.72    QN   YES    0:00:01
       22   1    8    0  -306.88866325   -0.20E-02*  0.35E-01   22  26 1 -0.85E-02*  0.87   1.70    QN   YES    0:00:01
       23   1    8    0  -306.88991412   -0.13E-02* -0.20E-01   19  23 1  0.43E-02*  0.87   1.50    QN   YES    0:00:01
       24   1    8    0  -306.89043555   -0.52E-03* -0.10E-01   22  25 1  0.23E-02*  0.86   1.41    QN   YES    0:00:01
       25   1    7    0  -306.89060981   -0.17E-03*  0.51E-02   19 107 1 -0.12E-02*  0.86   1.38    QN   YES    0:00:01
       26   1    7    0  -306.89065779   -0.48E-04*  0.23E-02   20  28 1 -0.55E-03*  0.86   1.35    QN   YES    0:00:01
       27   1    7    0  -306.89066947   -0.12E-04*  0.15E-02   20  25 1  0.41E-03*  0.86   1.42    QN   YES    0:00:01
       28   1    6    0  -306.89067350   -0.40E-05*  0.17E-02   20  25 1  0.30E-03*  0.86   1.60    QN   YES    0:00:01
       29   1    6    0  -306.89067564   -0.21E-05*  0.14E-02   20  25 1  0.17E-03*  0.86   1.58    QN   YES    0:00:01
       30   1    6    0  -306.89067670   -0.11E-05* -0.80E-03   20  28 1  0.13E-03*  0.86   1.52    QN   YES    0:00:01
       31   1    6    0  -306.89067711   -0.41E-06*  0.27E-03   20  28 1  0.92E-04   0.86   1.43    QN   YES    0:00:01
       32   1    6    0  -306.89067724   -0.13E-06*  0.58E-04   16  27 1  0.65E-04   0.86   1.41    QN   YES    0:00:01
       33   1    5    0  -306.89067728   -0.38E-07*  0.34E-04   16  27 1  0.36E-04   0.86   1.41    QN   YES    0:00:01
       34   1    5    0  -306.89067729   -0.11E-07*  0.24E-04   20  27 1 -0.17E-04   0.86   1.39    QN   YES    0:00:01
       35   1    4    0  -306.89067730   -0.30E-08   0.10E-04   20  27 1 -0.63E-05   0.86   1.34    QN   YES    0:00:01
      Convergence after 35 iterations
       36   1    4    0  -306.89067730   -0.63E-09   0.10E-04   24  27 1 -0.24E-05   0.86   1.34    QN   YES    0:00:01
 
      ************************************************************************************************************************
                                                      Wave function printout:
                       occupation of active orbitals, and spin coupling of open shells (u,d: Spin up or down)
      ************************************************************************************************************************
 
      Note: transformation to natural orbitals
      has been made, which may change the order of the CSFs.
 
      printout of CI-coefficients larger than  0.05 for root  1
      energy=    -306.902469
      conf/sym  1111     Coeff  Weight
             1  2220  -0.80292 0.64469
             2  22ud  -0.05044 0.00254
             8  2022   0.59050 0.34869
 
      printout of CI-coefficients larger than  0.05 for root  2
      energy=    -306.893160
      conf/sym  1111     Coeff  Weight
             1  2220  -0.05091 0.00259
             2  22ud   0.62142 0.38616
             5  2ud2  -0.39312 0.15455
             6  u22d  -0.44317 0.19640
             9  ud22   0.50492 0.25494
 
      printout of CI-coefficients larger than  0.05 for root  3
      energy=    -306.886606
      conf/sym  1111     Coeff  Weight
             2  22ud   0.45661 0.20850
             3  2202   0.05020 0.00252
             5  2ud2   0.53483 0.28604
             6  u22d   0.60179 0.36215
             9  ud22   0.37196 0.13835
 
      printout of CI-coefficients larger than  0.05 for root  4
      energy=    -306.880474
      conf/sym  1111     Coeff  Weight
             2  22ud   0.06867 0.00472
             3  2202  -0.72976 0.53254
             9  ud22   0.05576 0.00311
            10  0222   0.67607 0.45707
 
      Natural orbitals and occupation numbers for root  1
      sym 1:   1.999144   1.298888   1.996777   0.705191
 
      Natural orbitals and occupation numbers for root  2
      sym 1:   1.979170   1.978806   1.009332   1.032693
 
      Natural orbitals and occupation numbers for root  3
      sym 1:   1.020485   1.976279   1.977101   1.026135
 
      Natural orbitals and occupation numbers for root  4
      sym 1:   1.079003   1.998461   0.924714   1.997822
 
      ************************************************************************************************************************
      *                                                                                                                      *
      *                                                    Final results                                                     *
      *                                                                                                                      *
      ************************************************************************************************************************
 
 
++    Wave function specifications:
      -----------------------------
 
      Number of closed shell electrons          44
      Number of electrons in active shells       6
      Max number of holes in RAS1 space          0
      Max nr of electrons in RAS3 space          0
      Number of inactive orbitals               22
      Number of active orbitals                  4
      Number of secondary orbitals             108
      Spin quantum number                      0.0
      State symmetry                             1
--
 
++    Orbital specifications:
      -----------------------
 
      Symmetry species                           1
                                                 a
      Frozen orbitals                            0
      Inactive orbitals                         22
      Active orbitals                            4
      RAS1 orbitals                              0
      RAS2 orbitals                              4
      RAS3 orbitals                              0
      Secondary orbitals                       108
      Deleted orbitals                           0
      Number of basis functions                134
--
 
++    CI expansion specifications:
      ----------------------------
 
      Number of CSFs                            10
      Number of determinants                    10
      Number of root(s) required                 4
      CI roots used                              1     2     3     4
      weights                                0.250 0.250 0.250 0.250
      highest root included in the CI            4
      Root passed to geometry opt.               2
--
 
++    Final optimization conditions:
      ------------------------------
 
      Average CI energy                            -306.89067730
      RASSCF energy for state  2                   -306.89316032
      Super-CI energy                                -0.00000000
      RASSCF energy change                           -0.00000000
      Max change in MO coefficients              -0.731E-05
      Max non-diagonal density matrix element     0.104E-04
      Maximum BLB matrix element                 -0.239E-05
      (orbital pair  24,  27 in symmetry   1)
      Norm of electronic gradient            0.564E-01
--
 
 
      Final state energy(ies):
      ------------------------
 
::    RASSCF root number  1 Total energy:   -306.90246910
::    RASSCF root number  2 Total energy:   -306.89316032
::    RASSCF root number  3 Total energy:   -306.88660623
::    RASSCF root number  4 Total energy:   -306.88047353
 
++    Molecular orbitals:
      -------------------
 
      Pseudonatural active orbitals and approximate occupation numbers
 
 
 
 
      Molecular orbitals for symmetry species 1: a  
 
 
      Orbital                 1         2         3         4         5         6         7         8         9        10
      Energy           -20.5973  -20.5935  -11.2945  -11.2277  -11.2270  -11.2251   -1.3321   -1.2168   -1.0613   -0.9473
      Occ. No.           2.0000    2.0000    2.0000    2.0000    2.0000    2.0000    2.0000    2.0000    2.0000    2.0000
 
     1 C1     1s        -0.0002    0.0000   -1.0020    0.0045   -0.0045   -0.0044   -0.0102    0.0019   -0.0171   -0.0002
     2 C1     2s        -0.0008    0.0000   -0.0104   -0.0003    0.0004    0.0004    0.3471   -0.0641    0.4207   -0.0012
     3 C1     *s         0.0045   -0.0005    0.0171   -0.0006    0.0002    0.0005   -0.1238    0.0084    0.0032    0.0008
     4 C1     2px        0.0002   -0.0000   -0.0004   -0.0001    0.0001   -0.0003    0.0623   -0.0106   -0.0584   -0.0984
     5 C1     *px        0.0012   -0.0002    0.0000   -0.0004    0.0003   -0.0006   -0.0285   -0.0001    0.0067    0.0006
     6 C1     2py       -0.0002   -0.0000    0.0005   -0.0003   -0.0002   -0.0000   -0.0714    0.0123    0.0682   -0.2252
     7 C1     *py       -0.0014    0.0005    0.0000   -0.0006   -0.0004   -0.0003    0.0310    0.0032   -0.0056    0.0123
     8 C1     2pz        0.0004   -0.0001   -0.0008    0.0000   -0.0003   -0.0000    0.1183   -0.0140   -0.1314   -0.0693
     9 C1     *pz        0.0019    0.0005   -0.0005   -0.0005   -0.0002    0.0006   -0.0572    0.0121    0.0139    0.0056
    10 C1     *d2-      -0.0000    0.0000    0.0000    0.0001    0.0000   -0.0000   -0.0087    0.0013    0.0066   -0.0121
    11 C1     *d1-      -0.0001   -0.0000    0.0001    0.0000   -0.0001   -0.0001   -0.0158    0.0023    0.0133    0.0079
    12 C1     *d0        0.0001   -0.0001   -0.0000   -0.0001   -0.0000    0.0001    0.0112   -0.0013   -0.0127    0.0080
    13 C1     *d1+       0.0001    0.0000   -0.0001   -0.0001    0.0001    0.0000    0.0138   -0.0019   -0.0118   -0.0063
    14 C1     *d2+       0.0000    0.0000    0.0000   -0.0001    0.0000   -0.0001   -0.0012    0.0002    0.0007    0.0190
    15 C2     1s        -0.0000    0.0000   -0.0044   -1.0018    0.0124    0.0032   -0.0021    0.0005   -0.0115    0.0191
    16 C2     2s        -0.0002    0.0001    0.0003   -0.0104   -0.0005   -0.0006    0.0832   -0.0167    0.3656   -0.6163
    17 C2     *s        -0.0001   -0.0005   -0.0036    0.0123    0.0012    0.0012   -0.0319    0.0007   -0.1418    0.1875
    18 C2     2px        0.0000    0.0000    0.0001   -0.0000   -0.0001    0.0002   -0.0077    0.0009   -0.0321   -0.0053
    19 C2     *px       -0.0003    0.0001    0.0003   -0.0003    0.0002   -0.0008    0.0039    0.0035    0.0168    0.0005
    20 C2     2py        0.0002    0.0000    0.0003   -0.0001    0.0001    0.0000   -0.0439    0.0090   -0.0729   -0.0001
    21 C2     *py        0.0001   -0.0000    0.0014   -0.0008   -0.0007   -0.0003    0.0150   -0.0074    0.0373   -0.0158
    22 C2     2pz       -0.0001   -0.0000    0.0000    0.0002    0.0001    0.0000    0.0100    0.0000   -0.0142   -0.0109
    23 C2     *pz       -0.0003   -0.0002   -0.0003   -0.0002   -0.0006   -0.0001    0.0008   -0.0011    0.0041    0.0101
    24 C2     *d2-       0.0000   -0.0000    0.0000    0.0001   -0.0000    0.0001    0.0020   -0.0004    0.0058   -0.0010
    25 C2     *d1-       0.0000    0.0000   -0.0001   -0.0000    0.0001    0.0000   -0.0023    0.0005    0.0014    0.0007
    26 C2     *d0        0.0000   -0.0000   -0.0001   -0.0001    0.0000   -0.0001   -0.0040    0.0004   -0.0048    0.0013
    27 C2     *d1+       0.0001    0.0000   -0.0000   -0.0000   -0.0001    0.0000   -0.0021    0.0003    0.0006    0.0003
    28 C2     *d2+       0.0001    0.0000   -0.0001   -0.0002   -0.0001    0.0001   -0.0061    0.0009   -0.0062    0.0013
    29 H3     1s         0.0001   -0.0000    0.0004   -0.0002   -0.0000   -0.0002    0.0192   -0.0020    0.1199   -0.2620
    30 H3     *s        -0.0001    0.0003   -0.0001   -0.0010    0.0004   -0.0001   -0.0103    0.0095   -0.0526    0.1151
    31 H3     *px        0.0000    0.0000    0.0000    0.0002   -0.0000    0.0001    0.0009   -0.0000    0.0032   -0.0085
    32 H3     *py        0.0001   -0.0000    0.0000   -0.0002    0.0000    0.0000   -0.0017   -0.0003   -0.0066    0.0103
    33 H3     *pz       -0.0000   -0.0000   -0.0000   -0.0003    0.0000    0.0000   -0.0010    0.0003   -0.0084    0.0163
    34 H4     1s        -0.0000    0.0000    0.0004   -0.0001   -0.0002   -0.0000    0.0223   -0.0057    0.1198   -0.2626
    35 H4     *s         0.0001   -0.0001   -0.0002   -0.0011   -0.0001    0.0004   -0.0109    0.0010   -0.0549    0.1124
    36 H4     *px        0.0000    0.0000    0.0000   -0.0005   -0.0000    0.0000   -0.0025    0.0005   -0.0108    0.0208
    37 H4     *py        0.0001    0.0000    0.0001    0.0000    0.0000   -0.0000   -0.0009    0.0004   -0.0017    0.0005
    38 H4     *pz       -0.0000    0.0000    0.0000   -0.0000    0.0001    0.0000    0.0006   -0.0002   -0.0009    0.0004
    39 O1     1s         1.0008    0.0012    0.0001    0.0000   -0.0001   -0.0000   -0.0072    0.0003    0.0018   -0.0000
    40 O1     2s         0.0033   -0.0001   -0.0001    0.0002   -0.0003   -0.0002    0.8229   -0.0903   -0.3663   -0.0155
    41 O1     *s        -0.0060    0.0001   -0.0012   -0.0000    0.0004    0.0000   -0.0122    0.0046   -0.0324   -0.0023
    42 O1     2px       -0.0007    0.0001    0.0001   -0.0000    0.0000    0.0001   -0.0480    0.0088   -0.0304   -0.0136
    43 O1     *px        0.0012   -0.0002   -0.0001   -0.0000    0.0001   -0.0002    0.0078   -0.0019    0.0020    0.0072
    44 O1     2py        0.0008   -0.0001   -0.0002    0.0001   -0.0000   -0.0000    0.0588   -0.0092    0.0318   -0.0265
    45 O1     *py       -0.0014    0.0002    0.0000   -0.0002   -0.0001    0.0000   -0.0076    0.0002   -0.0038    0.0140
    46 O1     2pz       -0.0013   -0.0001    0.0003   -0.0000    0.0001    0.0001   -0.0967    0.0302   -0.0592   -0.0137
    47 O1     *pz        0.0024   -0.0000   -0.0002   -0.0000   -0.0004   -0.0000    0.0138   -0.0087    0.0057    0.0035
    48 O1     *d2-       0.0000   -0.0000   -0.0001   -0.0000   -0.0000    0.0000   -0.0037    0.0003   -0.0013    0.0002
    49 O1     *d1-       0.0001    0.0000   -0.0002    0.0000    0.0000   -0.0000   -0.0072    0.0019   -0.0024    0.0017
    50 O1     *d0       -0.0001    0.0000    0.0001    0.0000    0.0001   -0.0000    0.0061   -0.0003    0.0013    0.0016
    51 O1     *d1+      -0.0001   -0.0000    0.0002   -0.0000   -0.0000    0.0000    0.0067   -0.0015    0.0018    0.0011
    52 O1     *d2+       0.0000   -0.0000   -0.0000    0.0000   -0.0000    0.0000   -0.0006    0.0000   -0.0002    0.0018
    53 O2     1s        -0.0013    1.0002    0.0000   -0.0000   -0.0000    0.0000   -0.0001   -0.0039   -0.0002   -0.0003
    54 O2     2s        -0.0001    0.0007    0.0002   -0.0001   -0.0000    0.0001    0.0987    0.9392    0.0408    0.0092
    55 O2     *s         0.0001   -0.0012   -0.0002    0.0001    0.0001   -0.0001   -0.0067   -0.0036    0.0031    0.0023
    56 O2     2px       -0.0000    0.0011    0.0000    0.0000   -0.0000    0.0000    0.0097    0.0427   -0.0060   -0.0021
    57 O2     *px        0.0001   -0.0012   -0.0001   -0.0000    0.0001    0.0000   -0.0036   -0.0100    0.0010    0.0003
    58 O2     2py        0.0001   -0.0008   -0.0000   -0.0000    0.0000    0.0000   -0.0071   -0.0294    0.0047    0.0007
    59 O2     *py       -0.0001    0.0008    0.0000    0.0000   -0.0001   -0.0000    0.0027    0.0080   -0.0005    0.0001
    60 O2     2pz        0.0001   -0.0001   -0.0001    0.0000    0.0000    0.0000   -0.0039   -0.0035    0.0006    0.0006
    61 O2     *pz       -0.0001    0.0002    0.0002   -0.0000   -0.0001    0.0000    0.0019    0.0027    0.0010   -0.0022
    62 O2     *d2-      -0.0000    0.0001    0.0000    0.0000   -0.0000   -0.0000   -0.0005   -0.0036    0.0002   -0.0000
    63 O2     *d1-       0.0000   -0.0000   -0.0000   -0.0000    0.0000    0.0000    0.0004    0.0001   -0.0003    0.0001
    64 O2     *d0       -0.0000    0.0000   -0.0000    0.0000    0.0000   -0.0000    0.0002   -0.0022   -0.0001   -0.0000
    65 O2     *d1+      -0.0000    0.0000    0.0000    0.0000   -0.0000   -0.0000   -0.0003   -0.0003    0.0003    0.0001
    66 O2     *d2+       0.0000   -0.0000   -0.0000   -0.0000    0.0000   -0.0000    0.0001    0.0013    0.0000    0.0000
    67 H7     1s        -0.0001    0.0007    0.0001    0.0000   -0.0000   -0.0000    0.0370    0.1969   -0.0082   -0.0011
    68 H7     *s         0.0001    0.0004   -0.0000   -0.0000    0.0000    0.0000   -0.0097   -0.0823   -0.0009    0.0010
    69 H7     *px        0.0000   -0.0000   -0.0000    0.0000    0.0000    0.0000   -0.0027   -0.0196   -0.0003    0.0000
    70 H7     *py        0.0000    0.0000    0.0000    0.0000   -0.0000    0.0000    0.0013    0.0147    0.0006   -0.0000
    71 H7     *pz       -0.0000    0.0000   -0.0001   -0.0000   -0.0000    0.0000   -0.0020    0.0033    0.0012    0.0001
    72 C8     1s        -0.0001   -0.0000   -0.0044    0.0128    1.0018    0.0044   -0.0024    0.0006   -0.0111   -0.0108
    73 C8     2s        -0.0003   -0.0002    0.0003    0.0008    0.0105   -0.0006    0.0967   -0.0279    0.3504    0.3388
    74 C8     *s        -0.0004    0.0008   -0.0037   -0.0016   -0.0122    0.0014   -0.0405    0.0187   -0.1324   -0.0994
    75 C8     2px        0.0000   -0.0000    0.0002    0.0000    0.0000    0.0002   -0.0129    0.0032   -0.0403   -0.0250
    76 C8     *px       -0.0001   -0.0001    0.0005   -0.0000    0.0004   -0.0009    0.0057   -0.0018    0.0185    0.0134
    77 C8     2py       -0.0001    0.0000   -0.0002    0.0001   -0.0001   -0.0000    0.0185   -0.0045    0.0529   -0.0270
    78 C8     *py        0.0001    0.0001   -0.0007   -0.0009   -0.0005    0.0002   -0.0076    0.0023   -0.0249    0.0102
    79 C8     2pz       -0.0002    0.0000   -0.0002    0.0000   -0.0002   -0.0000    0.0460   -0.0106    0.0447    0.0048
    80 C8     *pz       -0.0002    0.0003   -0.0012   -0.0002   -0.0005    0.0002   -0.0148    0.0071   -0.0254   -0.0091
    81 C8     *d2-      -0.0001   -0.0000    0.0000   -0.0000    0.0001   -0.0000   -0.0010    0.0003   -0.0046   -0.0006
    82 C8     *d1-      -0.0001    0.0000    0.0001   -0.0001   -0.0002    0.0000    0.0059   -0.0011    0.0067   -0.0007
    83 C8     *d0        0.0000    0.0000    0.0001    0.0001   -0.0001   -0.0001    0.0033   -0.0002    0.0014    0.0007
    84 C8     *d1+       0.0001   -0.0000   -0.0001    0.0000    0.0001   -0.0001   -0.0044    0.0008   -0.0051   -0.0025
    85 C8     *d2+      -0.0000   -0.0000    0.0000    0.0001    0.0000    0.0001   -0.0005    0.0001   -0.0013    0.0014
    86 H9     1s        -0.0000   -0.0001    0.0004    0.0000    0.0002   -0.0002    0.0249   -0.0083    0.1142    0.1658
    87 H9     *s        -0.0001    0.0000   -0.0002   -0.0004    0.0011   -0.0001   -0.0110    0.0036   -0.0521   -0.0740
    88 H9     *px        0.0000   -0.0000    0.0000    0.0000   -0.0002    0.0001    0.0008   -0.0002    0.0017    0.0036
    89 H9     *py       -0.0000    0.0000   -0.0000    0.0000   -0.0004   -0.0000    0.0025   -0.0007    0.0103    0.0113
    90 H9     *pz       -0.0001   -0.0000   -0.0000   -0.0000    0.0001   -0.0000    0.0011   -0.0001   -0.0001   -0.0023
    91 H10    1s        -0.0000   -0.0001    0.0004    0.0002    0.0001   -0.0000    0.0250   -0.0083    0.1144    0.1240
    92 H10    *s        -0.0001    0.0001   -0.0002    0.0001    0.0011    0.0004   -0.0111    0.0037   -0.0520   -0.0510
    93 H10    *px        0.0000    0.0000    0.0000    0.0000    0.0005    0.0000   -0.0026    0.0007   -0.0104   -0.0111
    94 H10    *py       -0.0000    0.0000   -0.0000    0.0001    0.0001    0.0000   -0.0002    0.0001    0.0005   -0.0007
    95 H10    *pz       -0.0001   -0.0000   -0.0000    0.0000    0.0001    0.0000    0.0013   -0.0002    0.0003    0.0009
    96 H11    1s        -0.0001   -0.0000    0.0002    0.0002    0.0002   -0.0002    0.0194   -0.0058    0.1321    0.1377
    97 H11    *s         0.0002    0.0001   -0.0002    0.0001    0.0012   -0.0001   -0.0100    0.0037   -0.0629   -0.0601
    98 H11    *px       -0.0000    0.0000    0.0000    0.0000   -0.0002    0.0001    0.0007   -0.0002    0.0036    0.0030
    99 H11    *py        0.0000   -0.0000   -0.0000    0.0001    0.0002    0.0000   -0.0007    0.0003   -0.0040   -0.0048
   100 H11    *pz        0.0000   -0.0000   -0.0001   -0.0000   -0.0004    0.0000    0.0023   -0.0008    0.0095    0.0100
   101 C12    1s        -0.0000    0.0000   -0.0043    0.0035   -0.0048    1.0019   -0.0020    0.0005   -0.0113   -0.0089
   102 C12    2s        -0.0002    0.0001    0.0003    0.0006   -0.0007    0.0104    0.0829   -0.0164    0.3586    0.2874
   103 C12    *s        -0.0001   -0.0003   -0.0035   -0.0013    0.0014   -0.0123   -0.0332    0.0018   -0.1386   -0.0910
   104 C12    2px       -0.0002   -0.0000   -0.0003    0.0001   -0.0001   -0.0001    0.0448   -0.0089    0.0772    0.0032
   105 C12    *px       -0.0000    0.0000   -0.0014   -0.0005    0.0006   -0.0009   -0.0160    0.0076   -0.0392   -0.0107
   106 C12    2py        0.0000   -0.0000   -0.0001    0.0001    0.0001   -0.0000   -0.0016    0.0011    0.0151   -0.0357
   107 C12    *py        0.0003   -0.0001   -0.0000   -0.0007   -0.0004   -0.0001   -0.0003   -0.0055   -0.0081    0.0169
   108 C12    2pz       -0.0000   -0.0000    0.0000   -0.0000    0.0001   -0.0002    0.0078    0.0005   -0.0187   -0.0130
   109 C12    *pz       -0.0004   -0.0001   -0.0002    0.0002   -0.0006    0.0003    0.0016   -0.0015    0.0059    0.0033
   110 C12    *d2-       0.0001   -0.0000   -0.0000   -0.0001   -0.0001   -0.0000   -0.0005   -0.0001    0.0025   -0.0028
   111 C12    *d1-      -0.0001    0.0000    0.0000    0.0000    0.0001   -0.0000    0.0015   -0.0002   -0.0004   -0.0002
   112 C12    *d0        0.0000   -0.0000   -0.0001    0.0001    0.0000    0.0001   -0.0043    0.0004   -0.0046   -0.0009
   113 C12    *d1+      -0.0001   -0.0000    0.0001    0.0000   -0.0001   -0.0000    0.0020   -0.0004   -0.0024   -0.0015
   114 C12    *d2+      -0.0001   -0.0000    0.0001    0.0000    0.0000   -0.0002    0.0064   -0.0009    0.0080    0.0010
   115 H13    1s        -0.0000    0.0000    0.0004    0.0000   -0.0002    0.0001    0.0220   -0.0057    0.1170    0.1433
   116 H13    *s         0.0001   -0.0001   -0.0002   -0.0004   -0.0001    0.0011   -0.0105    0.0012   -0.0535   -0.0648
   117 H13    *px       -0.0001    0.0000   -0.0001    0.0000   -0.0000   -0.0001    0.0014   -0.0005    0.0039    0.0013
   118 H13    *py       -0.0000    0.0000    0.0000    0.0000    0.0000   -0.0005    0.0022   -0.0004    0.0099    0.0101
   119 H13    *pz       -0.0000    0.0000    0.0000   -0.0000    0.0001    0.0000    0.0004   -0.0001   -0.0014   -0.0013
   120 H14    1s        -0.0000    0.0001    0.0002    0.0002   -0.0002    0.0002    0.0167   -0.0032    0.1349    0.1181
   121 H14    *s         0.0001   -0.0000   -0.0003    0.0001   -0.0001    0.0012   -0.0078    0.0025   -0.0633   -0.0519
   122 H14    *px        0.0001    0.0000   -0.0001    0.0000   -0.0000   -0.0001    0.0014   -0.0004    0.0042    0.0039
   123 H14    *py       -0.0000    0.0000   -0.0000    0.0001    0.0000    0.0002   -0.0005    0.0002   -0.0041   -0.0045
   124 H14    *pz        0.0000    0.0000   -0.0000   -0.0000    0.0001   -0.0004    0.0013   -0.0000    0.0096    0.0079
   125 H15    1s         0.0001   -0.0000    0.0004    0.0002   -0.0000    0.0002    0.0193   -0.0016    0.1169    0.0997
   126 H15    *s        -0.0000    0.0003   -0.0001    0.0001    0.0004    0.0011   -0.0104    0.0104   -0.0511   -0.0412
   127 H15    *px       -0.0001   -0.0000   -0.0000    0.0000   -0.0000   -0.0001    0.0015    0.0004    0.0052    0.0044
   128 H15    *py       -0.0000   -0.0000   -0.0000    0.0001    0.0000    0.0002   -0.0013   -0.0000   -0.0047   -0.0049
   129 H15    *pz       -0.0000   -0.0000    0.0000   -0.0000    0.0000    0.0003   -0.0010    0.0003   -0.0084   -0.0065
   130 H16    1s        -0.0000    0.0001    0.0002   -0.0002   -0.0002   -0.0002    0.0168   -0.0032    0.1376   -0.2507
   131 H16    *s         0.0001   -0.0001   -0.0003   -0.0012   -0.0001   -0.0001   -0.0078    0.0025   -0.0642    0.1092
   132 H16    *px       -0.0000   -0.0000    0.0000    0.0002   -0.0000    0.0001    0.0002   -0.0001    0.0036   -0.0064
   133 H16    *py       -0.0001   -0.0000    0.0001   -0.0001    0.0000    0.0000   -0.0014    0.0004   -0.0047    0.0089
   134 H16    *pz        0.0000    0.0000   -0.0000    0.0004    0.0001   -0.0000    0.0014   -0.0000    0.0099   -0.0178
 
 
      Orbital                11        12        13        14        15        16        17        18        19        20
      Energy            -0.9458   -0.7585   -0.6423   -0.6155   -0.6116   -0.5634   -0.5518   -0.5505   -0.5218   -0.5178
      Occ. No.           2.0000    2.0000    2.0000    2.0000    2.0000    2.0000    2.0000    2.0000    2.0000    2.0000
 
     1 C1     1s        -0.0001   -0.0007    0.0031   -0.0001    0.0005    0.0000   -0.0003   -0.0001    0.0006    0.0042
     2 C1     2s        -0.0112   -0.5498   -0.0966   -0.0020    0.0107   -0.0722    0.0206    0.0192   -0.0099   -0.0582
     3 C1     *s         0.0013    0.1067   -0.0362   -0.0003    0.0003   -0.0192    0.0063    0.0072   -0.0096   -0.0641
     4 C1     2px        0.2174   -0.0336    0.1428    0.2982   -0.1680    0.0375    0.0502   -0.0872    0.0196    0.1302
     5 C1     *px       -0.0118    0.0234   -0.0286   -0.0225    0.0162   -0.0184   -0.0005    0.0033   -0.0043   -0.0480
     6 C1     2py       -0.0547    0.0364   -0.1777    0.2163    0.2569   -0.0749   -0.0312   -0.0509   -0.0365   -0.1480
     7 C1     *py        0.0082   -0.0321    0.0397   -0.0178   -0.0259    0.0356   -0.0004   -0.0090    0.0128    0.0522
     8 C1     2pz       -0.1221   -0.0573    0.2875   -0.0186    0.2199   -0.0023   -0.0837   -0.0088    0.0310    0.2837
     9 C1     *pz        0.0088    0.0381   -0.0408    0.0020   -0.0220    0.0105    0.0063   -0.0000   -0.0110   -0.0926
    10 C1     *d2-      -0.0085    0.0035   -0.0052   -0.0005   -0.0051   -0.0142   -0.0190   -0.0022   -0.0023   -0.0143
    11 C1     *d1-       0.0119    0.0064   -0.0088   -0.0034   -0.0001   -0.0129    0.0075   -0.0119   -0.0031   -0.0275
    12 C1     *d0        0.0125   -0.0043    0.0051    0.0003   -0.0017    0.0088   -0.0142   -0.0035    0.0040    0.0236
    13 C1     *d1+      -0.0076   -0.0057    0.0077   -0.0045    0.0001    0.0052   -0.0004   -0.0214    0.0037    0.0238
    14 C1     *d2+      -0.0165    0.0008   -0.0008    0.0041   -0.0011   -0.0018   -0.0054    0.0041   -0.0001   -0.0018
    15 C2     1s        -0.0010   -0.0091   -0.0009    0.0032    0.0019    0.0004   -0.0002   -0.0011   -0.0000   -0.0003
    16 C2     2s         0.0325    0.1802    0.0519   -0.0487   -0.0243   -0.0162    0.0009   -0.0122   -0.0033   -0.0231
    17 C2     *s        -0.0129   -0.0134   -0.0009   -0.0166   -0.0052   -0.0258    0.0032    0.0125    0.0002    0.0091
    18 C2     2px        0.0358    0.0592    0.1687    0.1429   -0.2926   -0.1449   -0.1841   -0.1234   -0.3140   -0.0265
    19 C2     *px       -0.0154   -0.0230   -0.0352   -0.0332    0.0573    0.0317    0.0194    0.0168    0.0426    0.0065
    20 C2     2py       -0.0105    0.2208    0.1311   -0.3078   -0.0669    0.1288    0.0572    0.0769    0.1430    0.1488
    21 C2     *py        0.0076   -0.0625   -0.0256    0.0645    0.0150   -0.0313   -0.0025   -0.0176   -0.0167   -0.0233
    22 C2     2pz       -0.0205   -0.0252    0.1967   -0.0255    0.2291   -0.2386   -0.0270   -0.3849    0.1718   -0.2051
    23 C2     *pz        0.0091    0.0054   -0.0531   -0.0037   -0.0517    0.0312    0.0093    0.0559   -0.0207    0.0392
    24 C2     *d2-      -0.0028   -0.0071   -0.0076    0.0048    0.0059   -0.0045   -0.0035   -0.0002   -0.0048   -0.0071
    25 C2     *d1-       0.0018    0.0012    0.0008   -0.0011    0.0018   -0.0062    0.0017   -0.0111    0.0060   -0.0129
    26 C2     *d0       -0.0004    0.0091   -0.0004   -0.0126    0.0003    0.0088    0.0051    0.0085    0.0103    0.0081
    27 C2     *d1+       0.0010    0.0019   -0.0066    0.0007   -0.0076    0.0061    0.0008    0.0084   -0.0062    0.0035
    28 C2     *d2+      -0.0016    0.0119    0.0077   -0.0064   -0.0086   -0.0032   -0.0059   -0.0012   -0.0088    0.0000
    29 H3     1s        -0.0102    0.1557    0.1737   -0.2487    0.2281   -0.0653    0.0810   -0.2163    0.3377   -0.0936
    30 H3     *s         0.0071   -0.0587   -0.0466    0.0807   -0.0737    0.0480   -0.0299    0.0606   -0.0943    0.0112
    31 H3     *px        0.0000    0.0049    0.0073   -0.0024   -0.0003   -0.0041   -0.0023   -0.0070    0.0008   -0.0023
    32 H3     *py       -0.0014   -0.0017   -0.0042    0.0021   -0.0070    0.0034   -0.0011    0.0078   -0.0064    0.0056
    33 H3     *pz        0.0004   -0.0093   -0.0040    0.0117   -0.0060   -0.0021   -0.0034    0.0015   -0.0112   -0.0004
    34 H4     1s         0.0381    0.1545    0.2009    0.0985   -0.2932   -0.1622   -0.1854   -0.1408   -0.3220   -0.0472
    35 H4     *s        -0.0200   -0.0471   -0.0660   -0.0303    0.0899    0.0393    0.0542    0.0433    0.0821    0.0061
    36 H4     *px       -0.0016   -0.0100   -0.0086   -0.0020    0.0117    0.0055    0.0061    0.0052    0.0109    0.0012
    37 H4     *py        0.0012    0.0030    0.0011   -0.0053   -0.0003    0.0039    0.0018    0.0016    0.0035    0.0030
    38 H4     *pz       -0.0008   -0.0012    0.0039   -0.0006    0.0058   -0.0043   -0.0005   -0.0076    0.0043   -0.0041
    39 O1     1s        -0.0001   -0.0004    0.0019    0.0000   -0.0000   -0.0009   -0.0003    0.0002   -0.0001   -0.0010
    40 O1     2s        -0.0202    0.2392   -0.1248   -0.0037    0.0028    0.0810   -0.0262   -0.0206   -0.0076   -0.0714
    41 O1     *s        -0.0023    0.0582   -0.0690   -0.0019    0.0027    0.0324   -0.0068   -0.0088   -0.0012   -0.0133
    42 O1     2px        0.0261    0.1572   -0.1659    0.0564   -0.0330   -0.0234    0.0500   -0.0196   -0.0316   -0.2332
    43 O1     *px       -0.0136   -0.0008   -0.0029   -0.0189    0.0098   -0.0029   -0.0073    0.0097   -0.0023   -0.0130
    44 O1     2py       -0.0063   -0.1732    0.1781    0.0447    0.0501    0.0035   -0.0460   -0.0380    0.0348    0.2636
    45 O1     *py        0.0022    0.0034    0.0023   -0.0141   -0.0148    0.0062    0.0054    0.0073    0.0018    0.0128
    46 O1     2pz       -0.0202    0.2920   -0.3189   -0.0070    0.0353   -0.0894    0.0094    0.0255   -0.0565   -0.3901
    47 O1     *pz        0.0063   -0.0059   -0.0005    0.0021   -0.0127    0.0054    0.0052   -0.0007   -0.0032   -0.0271
    48 O1     *d2-       0.0011    0.0049   -0.0038    0.0007   -0.0030   -0.0003    0.0007   -0.0003   -0.0007   -0.0051
    49 O1     *d1-       0.0000    0.0094   -0.0073   -0.0031   -0.0016   -0.0008    0.0020    0.0012   -0.0013   -0.0088
    50 O1     *d0        0.0026   -0.0054    0.0040    0.0005   -0.0048   -0.0004    0.0028    0.0004    0.0009    0.0055
    51 O1     *d1+      -0.0015   -0.0076    0.0059   -0.0037    0.0007    0.0001   -0.0016    0.0004    0.0009    0.0076
    52 O1     *d2+      -0.0009    0.0008   -0.0005   -0.0030   -0.0009    0.0006   -0.0004    0.0019    0.0002   -0.0010
    53 O2     1s        -0.0005    0.0001   -0.0004   -0.0001    0.0005   -0.0016    0.0002    0.0004   -0.0001   -0.0002
    54 O2     2s         0.0132   -0.0473    0.0581    0.0001   -0.0169    0.1687   -0.0342   -0.0424   -0.0036   -0.0599
    55 O2     *s         0.0036   -0.0122    0.0245    0.0007   -0.0056    0.0809   -0.0177   -0.0212   -0.0011   -0.0268
    56 O2     2px        0.0003    0.0357   -0.1202    0.0001   -0.0017   -0.4954    0.1156    0.1236    0.0276    0.2784
    57 O2     *px       -0.0001   -0.0029    0.0038   -0.0005    0.0006   -0.0024    0.0001    0.0014    0.0008    0.0087
    58 O2     2py       -0.0000   -0.0266    0.0867   -0.0032    0.0025    0.3490   -0.0815   -0.0919   -0.0146   -0.1944
    59 O2     *py       -0.0004    0.0014   -0.0020   -0.0009   -0.0001    0.0001   -0.0004    0.0007   -0.0009   -0.0041
    60 O2     2pz        0.0011   -0.0040   -0.0005    0.0001   -0.0035    0.0030   -0.0029   -0.0016    0.0013    0.0080
    61 O2     *pz       -0.0036   -0.0028    0.0038   -0.0002    0.0058   -0.0061   -0.0019    0.0013    0.0001    0.0026
    62 O2     *d2-      -0.0001   -0.0012    0.0034   -0.0001    0.0002    0.0122   -0.0030   -0.0032   -0.0005   -0.0065
    63 O2     *d1-       0.0000    0.0005   -0.0007    0.0001   -0.0002   -0.0005    0.0001    0.0004   -0.0002   -0.0002
    64 O2     *d0       -0.0001   -0.0005    0.0020   -0.0000    0.0004    0.0077   -0.0019   -0.0020   -0.0004   -0.0043
    65 O2     *d1+      -0.0001   -0.0005    0.0007    0.0001    0.0002    0.0010   -0.0003    0.0001   -0.0002   -0.0001
    66 O2     *d2+       0.0000    0.0002   -0.0010    0.0001   -0.0000   -0.0043    0.0010    0.0011    0.0001    0.0026
    67 H7     1s         0.0009    0.0518   -0.1372    0.0017   -0.0042   -0.4747    0.1132    0.1216    0.0184    0.2287
    68 H7     *s         0.0005   -0.0049    0.0245   -0.0018   -0.0008    0.1258   -0.0274   -0.0310   -0.0074   -0.0779
    69 H7     *px       -0.0000   -0.0014    0.0061   -0.0001    0.0003    0.0245   -0.0058   -0.0064   -0.0012   -0.0135
    70 H7     *py        0.0000    0.0005   -0.0038    0.0000   -0.0001   -0.0191    0.0043    0.0046    0.0011    0.0117
    71 H7     *pz        0.0001   -0.0018    0.0008    0.0002   -0.0000   -0.0060    0.0011    0.0016    0.0007    0.0069
    72 C8     1s        -0.0166   -0.0089   -0.0006    0.0002   -0.0031   -0.0004    0.0008    0.0002   -0.0000    0.0001
    73 C8     2s         0.5238    0.1764    0.0419   -0.0031    0.0592   -0.0021    0.0160    0.0026   -0.0015   -0.0188
    74 C8     *s        -0.1535   -0.0286    0.0183   -0.0011    0.0098    0.0258   -0.0015   -0.0054    0.0024    0.0068
    75 C8     2px        0.0249    0.0832    0.1638    0.3062    0.1089    0.0047    0.1920    0.1855    0.2805   -0.0678
    76 C8     *px       -0.0089   -0.0229   -0.0415   -0.0641   -0.0164   -0.0014   -0.0279   -0.0196   -0.0378    0.0100
    77 C8     2py        0.0071   -0.1139   -0.2105    0.2482   -0.1125    0.0497   -0.2611    0.0527    0.2568   -0.0012
    78 C8     *py       -0.0073    0.0325    0.0518   -0.0509    0.0160   -0.0046    0.0347   -0.0027   -0.0339   -0.0009
    79 C8     2pz        0.0035   -0.1881    0.0783    0.0034   -0.2719   -0.0141    0.4134    0.0718   -0.0410   -0.2127
    80 C8     *pz       -0.0125    0.0532   -0.0261   -0.0014    0.0594    0.0170   -0.0665   -0.0147    0.0063    0.0304
    81 C8     *d2-       0.0001    0.0046    0.0099   -0.0017    0.0035   -0.0016    0.0063   -0.0003   -0.0037    0.0029
    82 C8     *d1-       0.0020   -0.0125   -0.0011    0.0054   -0.0117   -0.0005    0.0108    0.0011    0.0011   -0.0079
    83 C8     *d0        0.0007   -0.0055   -0.0046   -0.0004   -0.0043    0.0029   -0.0151   -0.0037    0.0021    0.0111
    84 C8     *d1+       0.0005    0.0095   -0.0002    0.0049    0.0095    0.0001   -0.0094   -0.0033    0.0023    0.0066
    85 C8     *d2+      -0.0010    0.0015    0.0022    0.0086    0.0018    0.0014   -0.0004    0.0081    0.0164   -0.0012
    86 H9     1s         0.2112    0.1565    0.1775   -0.3135    0.0880   -0.0553    0.2414   -0.0965   -0.3484   -0.0137
    87 H9     *s        -0.0895   -0.0499   -0.0583    0.0965   -0.0271    0.0119   -0.0704    0.0286    0.0893   -0.0039
    88 H9     *px        0.0051    0.0042    0.0058    0.0013    0.0030   -0.0005    0.0074    0.0024    0.0007   -0.0014
    89 H9     *py        0.0168    0.0091    0.0059   -0.0126    0.0041   -0.0018    0.0071   -0.0039   -0.0128   -0.0003
    90 H9     *pz       -0.0007   -0.0042    0.0019    0.0019   -0.0049   -0.0004    0.0074    0.0014    0.0008   -0.0040
    91 H10    1s         0.2386    0.1563    0.1679    0.3101    0.1252    0.0028    0.1969    0.1974    0.3110   -0.0950
    92 H10    *s        -0.1043   -0.0499   -0.0546   -0.0948   -0.0384   -0.0041   -0.0572   -0.0553   -0.0813    0.0163
    93 H10    *px       -0.0180   -0.0100   -0.0064   -0.0117   -0.0063   -0.0000   -0.0066   -0.0067   -0.0111    0.0033
    94 H10    *py       -0.0016   -0.0023   -0.0044    0.0040   -0.0017    0.0008   -0.0059    0.0006    0.0043    0.0002
    95 H10    *pz       -0.0014   -0.0036    0.0025   -0.0008   -0.0047   -0.0005    0.0080    0.0018   -0.0014   -0.0038
    96 H11    1s         0.2134    0.1750   -0.1711   -0.0147    0.1950    0.0369   -0.5395   -0.1104    0.0427    0.2373
    97 H11    *s        -0.0930   -0.0551    0.0431    0.0036   -0.0490   -0.0045    0.1390    0.0273   -0.0094   -0.0475
    98 H11    *px        0.0063    0.0049   -0.0002    0.0058    0.0054    0.0004   -0.0052    0.0022    0.0066    0.0014
    99 H11    *py       -0.0061   -0.0058   -0.0003    0.0052   -0.0057    0.0008    0.0046    0.0031    0.0049   -0.0030
   100 H11    *pz        0.0154    0.0076   -0.0065   -0.0007    0.0057    0.0015   -0.0177   -0.0039    0.0011    0.0062
   101 C12    1s         0.0169   -0.0092   -0.0007   -0.0035    0.0016    0.0005   -0.0007    0.0010   -0.0001   -0.0002
   102 C12    2s        -0.5493    0.1859    0.0500    0.0547   -0.0199   -0.0155   -0.0054    0.0211   -0.0046   -0.0193
   103 C12    *s         0.1676   -0.0177    0.0014    0.0189   -0.0044   -0.0214    0.0055   -0.0023    0.0006    0.0093
   104 C12    2px       -0.0004   -0.2278   -0.1411   -0.2816    0.1061   -0.0742   -0.0532    0.0997    0.0054   -0.1580
   105 C12    *px        0.0143    0.0641    0.0291    0.0598   -0.0238    0.0270    0.0068   -0.0291    0.0025    0.0198
   106 C12    2py       -0.0118   -0.0108   -0.1322    0.1645    0.2939    0.1337    0.2190   -0.1055   -0.3186    0.1436
   107 C12    *py        0.0036    0.0097    0.0278   -0.0371   -0.0577   -0.0356   -0.0247    0.0253    0.0408   -0.0198
   108 C12    2pz       -0.0175   -0.0141    0.2084    0.0205    0.2052   -0.0686   -0.1903    0.4102   -0.2042   -0.1447
   109 C12    *pz        0.0130    0.0020   -0.0570    0.0048   -0.0465    0.0095    0.0332   -0.0589    0.0281    0.0301
   110 C12    *d2-      -0.0018   -0.0015   -0.0034   -0.0016    0.0022   -0.0056   -0.0059    0.0014    0.0050   -0.0081
   111 C12    *d1-      -0.0003   -0.0014    0.0066    0.0007    0.0077   -0.0017   -0.0043    0.0113   -0.0092   -0.0033
   112 C12    *d0        0.0013    0.0093   -0.0013    0.0121    0.0012    0.0056    0.0083   -0.0089   -0.0074    0.0099
   113 C12    *d1+      -0.0012   -0.0000    0.0013    0.0007   -0.0004    0.0012    0.0027   -0.0108    0.0063    0.0115
   114 C12    *d2+      -0.0015   -0.0138   -0.0097   -0.0093    0.0088    0.0015    0.0036   -0.0006   -0.0064   -0.0007
   115 H13    1s        -0.2231    0.1566    0.1979   -0.0523   -0.2967   -0.1294   -0.2173    0.1214    0.3019   -0.1315
   116 H13    *s         0.0942   -0.0485   -0.0654    0.0168    0.0922    0.0297    0.0649   -0.0339   -0.0807    0.0284
   117 H13    *px       -0.0049   -0.0008    0.0013   -0.0051   -0.0025   -0.0043   -0.0042    0.0038    0.0042   -0.0045
   118 H13    *py       -0.0176    0.0105    0.0086    0.0010   -0.0112   -0.0034   -0.0067    0.0042    0.0096   -0.0033
   119 H13    *pz        0.0009   -0.0016    0.0036    0.0004    0.0062   -0.0008   -0.0032    0.0077   -0.0057   -0.0021
   120 H14    1s        -0.2226    0.1772   -0.1388    0.1823   -0.1178    0.1431    0.2678   -0.4388    0.0585    0.2671
   121 H14    *s         0.0974   -0.0597    0.0368   -0.0462    0.0306   -0.0297   -0.0726    0.1117   -0.0123   -0.0531
   122 H14    *px       -0.0073    0.0015   -0.0050   -0.0002   -0.0011    0.0021    0.0047   -0.0080    0.0016    0.0037
   123 H14    *py        0.0064   -0.0048    0.0006   -0.0006    0.0084    0.0004   -0.0008    0.0064   -0.0079   -0.0012
   124 H14    *pz       -0.0158    0.0098   -0.0024    0.0095   -0.0018    0.0054    0.0085   -0.0115   -0.0020    0.0072
   125 H15    1s        -0.2423    0.1563    0.1666    0.2259    0.2428    0.0414   -0.0180    0.2342   -0.3366    0.0025
   126 H15    *s         0.1078   -0.0602   -0.0429   -0.0741   -0.0798    0.0240   -0.0013   -0.0831    0.0930   -0.0213
   127 H15    *px       -0.0061    0.0001    0.0025    0.0004    0.0063    0.0006   -0.0014    0.0066   -0.0065   -0.0034
   128 H15    *py        0.0099   -0.0054   -0.0080   -0.0033   -0.0014    0.0011    0.0052   -0.0084    0.0029    0.0027
   129 H15    *pz        0.0152   -0.0093   -0.0034   -0.0110   -0.0075   -0.0029   -0.0026   -0.0018    0.0108   -0.0036
   130 H16    1s         0.0153    0.1750   -0.1319   -0.1792   -0.1472    0.3147    0.1045    0.4104    0.0125    0.2761
   131 H16    *s        -0.0066   -0.0588    0.0354    0.0453    0.0390   -0.0790   -0.0301   -0.1100   -0.0010   -0.0537
   132 H16    *px        0.0013    0.0046    0.0006   -0.0000   -0.0084    0.0016   -0.0020    0.0043   -0.0068    0.0027
   133 H16    *py       -0.0008   -0.0020    0.0049   -0.0005    0.0030   -0.0054   -0.0011   -0.0083    0.0026   -0.0044
   134 H16    *pz        0.0006    0.0096   -0.0023   -0.0095   -0.0028    0.0098    0.0045    0.0110    0.0040    0.0067
 
 
      Orbital                21        22        23        24        25        26
      Energy            -0.4903   -0.4890   -0.3472    0.0005    0.0002    0.0103
      Occ. No.           2.0000    2.0000    1.5300    1.6147    1.4699    1.3854
 
     1 C1     1s        -0.0001    0.0003    0.0002    0.0002   -0.0000    0.0014
     2 C1     2s        -0.0026    0.0005   -0.0000    0.0013    0.0040    0.0095
     3 C1     *s        -0.0000   -0.0077   -0.0080    0.0044    0.0056    0.0068
     4 C1     2px        0.3837   -0.2346   -0.0495   -0.0400   -0.0474    0.0318
     5 C1     *px       -0.0588    0.0375   -0.0119    0.0062    0.0355   -0.0027
     6 C1     2py        0.3016    0.3071   -0.0447    0.0463   -0.0451   -0.0368
     7 C1     *py       -0.0469   -0.0467   -0.0042   -0.0077    0.0202   -0.0064
     8 C1     2pz       -0.0131    0.2792   -0.0009    0.0474    0.0062   -0.0502
     9 C1     *pz        0.0032   -0.0359    0.0039   -0.0163   -0.0062   -0.0137
    10 C1     *d2-       0.0074    0.0211   -0.0039   -0.0051   -0.0038    0.0077
    11 C1     *d1-       0.0029   -0.0200    0.0104   -0.0091    0.0113    0.0106
    12 C1     *d0       -0.0001   -0.0147    0.0005   -0.0215    0.0002    0.0201
    13 C1     *d1+       0.0060    0.0147    0.0108    0.0072    0.0133   -0.0087
    14 C1     *d2+      -0.0325    0.0052    0.0205    0.0004    0.0195    0.0002
    15 C2     1s         0.0002    0.0004    0.0002    0.0006    0.0009    0.0000
    16 C2     2s         0.0820    0.0423   -0.0632    0.0349   -0.0470   -0.0193
    17 C2     *s         0.0237    0.0076   -0.0186    0.0054   -0.0211    0.0025
    18 C2     2px       -0.3016    0.0808    0.0094   -0.0165    0.0031    0.0080
    19 C2     *px        0.0324   -0.0040    0.0048   -0.0068   -0.0102    0.0025
    20 C2     2py       -0.3019   -0.2481    0.0829   -0.0370    0.0916    0.0413
    21 C2     *py        0.0371    0.0231   -0.0316    0.0119    0.0141   -0.0001
    22 C2     2pz       -0.0468   -0.1899   -0.0373    0.0259   -0.0095   -0.0006
    23 C2     *pz        0.0037    0.0140    0.0154   -0.0093    0.0103    0.0021
    24 C2     *d2-       0.0017    0.0139    0.0003    0.0015   -0.0003   -0.0014
    25 C2     *d1-      -0.0012   -0.0152   -0.0006   -0.0012    0.0005    0.0014
    26 C2     *d0       -0.0004   -0.0088    0.0017   -0.0019    0.0031    0.0012
    27 C2     *d1+       0.0017    0.0055    0.0020   -0.0008    0.0014    0.0008
    28 C2     *d2+      -0.0229    0.0040    0.0015    0.0007    0.0029    0.0004
    29 H3     1s        -0.0423   -0.3307   -0.0196    0.0098    0.0095    0.0155
    30 H3     *s         0.0097    0.0745    0.0380   -0.0263   -0.0302    0.0014
    31 H3     *px       -0.0072   -0.0030   -0.0002    0.0006   -0.0002    0.0006
    32 H3     *py       -0.0043    0.0048    0.0006    0.0012    0.0025    0.0002
    33 H3     *pz        0.0014    0.0083    0.0006   -0.0021   -0.0011   -0.0015
    34 H4     1s        -0.3269    0.1001   -0.0134    0.0071   -0.0085   -0.0086
    35 H4     *s         0.0608   -0.0189    0.0253    0.0056    0.0248   -0.0036
    36 H4     *px        0.0102   -0.0021    0.0004   -0.0005    0.0006    0.0007
    37 H4     *py       -0.0031   -0.0061    0.0000   -0.0017   -0.0009    0.0010
    38 H4     *pz       -0.0000   -0.0041   -0.0004    0.0012    0.0009    0.0001
    39 O1     1s         0.0000   -0.0003   -0.0006    0.0013   -0.0003    0.0003
    40 O1     2s        -0.0007    0.0078   -0.0063    0.0319   -0.0079    0.0334
    41 O1     *s        -0.0007    0.0041    0.0033   -0.0001   -0.0017    0.0086
    42 O1     2px        0.0577   -0.0513    0.5002    0.3366    0.5101   -0.3498
    43 O1     *px       -0.0124    0.0068    0.0292    0.0142    0.0204   -0.0171
    44 O1     2py        0.0503    0.0644    0.4370   -0.3853    0.4521    0.4011
    45 O1     *py       -0.0098   -0.0088    0.0260   -0.0183    0.0174    0.0217
    46 O1     2pz       -0.0069    0.0288   -0.0022   -0.4062   -0.0082    0.4633
    47 O1     *pz        0.0011   -0.0083   -0.0014   -0.0262    0.0036    0.0185
    48 O1     *d2-       0.0010   -0.0031    0.0010    0.0048    0.0009   -0.0042
    49 O1     *d1-      -0.0035   -0.0022   -0.0040   -0.0004   -0.0052   -0.0024
    50 O1     *d0        0.0003   -0.0070   -0.0003    0.0060    0.0002   -0.0078
    51 O1     *d1+      -0.0040    0.0013   -0.0046   -0.0002   -0.0055    0.0025
    52 O1     *d2+      -0.0051   -0.0006   -0.0058    0.0009   -0.0048   -0.0009
    53 O2     1s        -0.0001    0.0002    0.0002    0.0012    0.0007    0.0001
    54 O2     2s         0.0011    0.0274   -0.0023    0.0358    0.0035   -0.0244
    55 O2     *s         0.0016    0.0114   -0.0024   -0.0081   -0.0043   -0.0057
    56 O2     2px       -0.0042   -0.0598    0.3658    0.1184   -0.4017    0.0344
    57 O2     *px       -0.0001   -0.0010    0.0159    0.0076   -0.0173   -0.0028
    58 O2     2py        0.0009    0.0428    0.5479    0.0662   -0.5446    0.1376
    59 O2     *py       -0.0008    0.0012    0.0266    0.0000   -0.0195    0.0084
    60 O2     2pz        0.0001    0.0105   -0.1241    0.6428    0.1272    0.6982
    61 O2     *pz       -0.0001    0.0028   -0.0056    0.0249    0.0053    0.0278
    62 O2     *d2-       0.0001    0.0016    0.0027   -0.0003   -0.0024    0.0019
    63 O2     *d1-      -0.0000    0.0000   -0.0000   -0.0049   -0.0008   -0.0034
    64 O2     *d0        0.0001    0.0010    0.0003   -0.0020    0.0001    0.0014
    65 O2     *d1+      -0.0000    0.0000   -0.0019    0.0063    0.0010    0.0054
    66 O2     *d2+      -0.0000   -0.0006    0.0072    0.0017   -0.0066    0.0006
    67 H7     1s        -0.0036   -0.0606    0.0006   -0.0065   -0.0007   -0.0474
    68 H7     *s        -0.0008    0.0104    0.0033    0.0318    0.0038    0.0368
    69 H7     *px        0.0001    0.0027    0.0100    0.0005   -0.0058    0.0058
    70 H7     *py       -0.0002   -0.0019    0.0122    0.0026   -0.0099   -0.0020
    71 H7     *pz        0.0002    0.0000   -0.0039    0.0140    0.0016    0.0091
    72 C8     1s        -0.0000    0.0001   -0.0000    0.0013    0.0001    0.0003
    73 C8     2s         0.0001   -0.0964    0.0033   -0.0671    0.0039    0.0788
    74 C8     *s         0.0006   -0.0275    0.0047   -0.0324   -0.0048    0.0084
    75 C8     2px       -0.2077    0.2566   -0.0142    0.0200   -0.0145   -0.0209
    76 C8     *px        0.0193   -0.0292   -0.0054    0.0027   -0.0080    0.0003
    77 C8     2py       -0.1637   -0.3221   -0.0090   -0.0315   -0.0099    0.0330
    78 C8     *py        0.0156    0.0360   -0.0035   -0.0039   -0.0069    0.0003
    79 C8     2pz        0.0062   -0.2264    0.0060   -0.1004    0.0043    0.1045
    80 C8     *pz       -0.0007    0.0311    0.0009    0.0131   -0.0037   -0.0249
    81 C8     *d2-       0.0051    0.0100   -0.0002   -0.0009   -0.0004    0.0011
    82 C8     *d1-       0.0036   -0.0102   -0.0002   -0.0043   -0.0007    0.0045
    83 C8     *d0       -0.0002   -0.0144    0.0001   -0.0003    0.0001   -0.0007
    84 C8     *d1+       0.0058    0.0067   -0.0008    0.0033   -0.0013   -0.0035
    85 C8     *d2+      -0.0221    0.0030    0.0011    0.0001    0.0020   -0.0001
    86 H9     1s         0.2551    0.2055    0.0043   -0.0157    0.0055    0.0200
    87 H9     *s        -0.0474   -0.0394   -0.0171    0.0178   -0.0204   -0.0186
    88 H9     *px       -0.0024    0.0073    0.0002   -0.0000    0.0002    0.0000
    89 H9     *py        0.0085    0.0043   -0.0004   -0.0010   -0.0001    0.0013
    90 H9     *pz        0.0006   -0.0043   -0.0020   -0.0002   -0.0018    0.0005
    91 H10    1s        -0.2584    0.2167   -0.0028   -0.0162   -0.0035    0.0205
    92 H10    *s         0.0477   -0.0414    0.0152    0.0200    0.0181   -0.0215
    93 H10    *px        0.0079   -0.0064   -0.0004    0.0009   -0.0001   -0.0012
    94 H10    *py       -0.0042   -0.0063    0.0004   -0.0001    0.0002    0.0003
    95 H10    *pz       -0.0010   -0.0038    0.0021   -0.0000    0.0018    0.0004
    96 H11    1s         0.0035   -0.0503   -0.0036    0.0624   -0.0018   -0.0647
    97 H11    *s        -0.0009    0.0232   -0.0001    0.0022   -0.0008   -0.0091
    98 H11    *px       -0.0042    0.0040   -0.0003    0.0019   -0.0003   -0.0018
    99 H11    *py       -0.0034   -0.0051   -0.0000   -0.0023   -0.0001    0.0023
   100 H11    *pz        0.0003   -0.0062    0.0000   -0.0005    0.0001    0.0006
   101 C12    1s        -0.0001    0.0004   -0.0000    0.0005   -0.0012    0.0004
   102 C12    2s        -0.0802    0.0395    0.0557    0.0428    0.0461   -0.0215
   103 C12    *s        -0.0228    0.0075    0.0101    0.0092    0.0306   -0.0051
   104 C12    2px       -0.3624    0.2153    0.0802    0.0487    0.0833   -0.0517
   105 C12    *px        0.0443   -0.0195   -0.0224   -0.0130    0.0067   -0.0040
   106 C12    2py       -0.2292   -0.1573   -0.0119    0.0090   -0.0122    0.0035
   107 C12    *py        0.0235    0.0100    0.0041    0.0105   -0.0064    0.0004
   108 C12    2pz        0.0727   -0.2144    0.0230    0.0300    0.0113    0.0036
   109 C12    *pz       -0.0078    0.0171   -0.0165   -0.0102   -0.0070    0.0027
   110 C12    *d2-       0.0078    0.0146   -0.0009    0.0016   -0.0010   -0.0009
   111 C12    *d1-       0.0009   -0.0105    0.0017    0.0008    0.0015   -0.0004
   112 C12    *d0        0.0006   -0.0099   -0.0020   -0.0025   -0.0028    0.0015
   113 C12    *d1+       0.0002    0.0125   -0.0003    0.0009    0.0005   -0.0016
   114 C12    *d2+      -0.0218    0.0030    0.0015    0.0003    0.0025   -0.0014
   115 H13    1s         0.3298    0.1163    0.0133    0.0088    0.0051   -0.0085
   116 H13    *s        -0.0636   -0.0234   -0.0276    0.0025   -0.0210   -0.0011
   117 H13    *px       -0.0009    0.0064   -0.0003    0.0018   -0.0008   -0.0010
   118 H13    *py        0.0108    0.0011    0.0004    0.0003    0.0006   -0.0006
   119 H13    *pz       -0.0004   -0.0050    0.0001    0.0012   -0.0008    0.0004
   120 H14    1s        -0.0490    0.0690   -0.0473   -0.0339   -0.0371    0.0109
   121 H14    *s         0.0182   -0.0181   -0.0069   -0.0041    0.0010    0.0003
   122 H14    *px       -0.0077    0.0055    0.0018    0.0009    0.0019   -0.0014
   123 H14    *py       -0.0037   -0.0045    0.0008    0.0008    0.0006   -0.0003
   124 H14    *pz       -0.0007   -0.0015   -0.0018   -0.0008   -0.0012    0.0007
   125 H15    1s         0.0452   -0.3543    0.0119    0.0140   -0.0023    0.0187
   126 H15    *s        -0.0098    0.0842   -0.0164   -0.0320    0.0131   -0.0037
   127 H15    *px       -0.0057   -0.0041    0.0015   -0.0016    0.0016   -0.0007
   128 H15    *py       -0.0062    0.0043   -0.0002   -0.0005   -0.0008   -0.0005
   129 H15    *pz       -0.0010    0.0093    0.0001   -0.0027    0.0003   -0.0020
   130 H16    1s         0.0506    0.0623    0.0555   -0.0267    0.0363    0.0084
   131 H16    *s        -0.0185   -0.0168    0.0065   -0.0040   -0.0001    0.0005
   132 H16    *px       -0.0052    0.0026    0.0015   -0.0009    0.0011    0.0004
   133 H16    *py       -0.0066   -0.0062    0.0018   -0.0005    0.0018    0.0012
   134 H16    *pz        0.0012   -0.0013    0.0020   -0.0007    0.0011    0.0004
--
 
      Von Neumann Entropy (Root   1) =  0.93764
 

      Mulliken population analysis for root number:  1
      -----------------------------------------------
 
 
++    Molecular charges:
      ------------------
 
      Mulliken charges per centre and basis function type
      ---------------------------------------------------
 
                C1      C2      H3      H4      O1      O2      H7      C8      H9      H10     H11     C12   
      1s       2.0042  2.0039  1.2551  1.2656  2.0016  2.0004  0.8542  2.0040  1.2638  1.2647  1.2661  2.0039
      2s       1.3936  1.4502  0.0000  0.0000  1.8778  1.9243  0.0000  1.4464  0.0000  0.0000  0.0000  1.4503
      2px      1.0732  1.1648  0.0000  0.0000  1.5697  1.5489  0.0000  1.1577  0.0000  0.0000  0.0000  1.0882
      2pz      0.8915  1.1788  0.0000  0.0000  1.2470  1.0179  0.0000  1.1176  0.0000  0.0000  0.0000  1.1796
      2py      1.0589  1.1010  0.0000  0.0000  1.5126  1.7017  0.0000  1.1474  0.0000  0.0000  0.0000  1.1751
      *s      -0.1866 -0.4459 -0.3376 -0.3288  0.0208  0.0078 -0.2061 -0.4383 -0.3320 -0.3311 -0.3259 -0.4477
      *px     -0.0716 -0.1777  0.0073  0.0210  0.0332  0.0270  0.0231 -0.1764  0.0061  0.0211  0.0067 -0.1856
      *pz     -0.1067 -0.1789  0.0153  0.0055  0.0054  0.0327  0.0067 -0.1874  0.0047  0.0047  0.0171 -0.1824
      *py     -0.0826 -0.1837  0.0088  0.0042  0.0291  0.0430  0.0170 -0.1762  0.0199  0.0049  0.0068 -0.1758
      *d2+     0.0399  0.0181  0.0000  0.0000  0.0007  0.0005  0.0000  0.0176  0.0000  0.0000  0.0000  0.0175
      *d1+     0.0325  0.0053  0.0000  0.0000  0.0024  0.0002  0.0000  0.0084  0.0000  0.0000  0.0000  0.0097
      *d0      0.0315  0.0121  0.0000  0.0000  0.0025  0.0009  0.0000  0.0134  0.0000  0.0000  0.0000  0.0120
      *d1-     0.0378  0.0126  0.0000  0.0000  0.0031  0.0001  0.0000  0.0117  0.0000  0.0000  0.0000  0.0084
      *d2-     0.0262  0.0088  0.0000  0.0000  0.0010  0.0023  0.0000  0.0056  0.0000  0.0000  0.0000  0.0093
      Total    6.1417  5.9694  0.9489  0.9675  8.3069  8.3076  0.6949  5.9515  0.9624  0.9643  0.9709  5.9626
 
      N-E     -0.1417  0.0306  0.0511  0.0325 -0.3069 -0.3076  0.3051  0.0485  0.0376  0.0357  0.0291  0.0374
 
                H13     H14     H15     H16   
      1s       1.2651  1.2673  1.2538  1.2663
      2s       0.0000  0.0000  0.0000  0.0000
      2px      0.0000  0.0000  0.0000  0.0000
      2pz      0.0000  0.0000  0.0000  0.0000
      2py      0.0000  0.0000  0.0000  0.0000
      *s      -0.3307 -0.3265 -0.3402 -0.3279
      *px      0.0053  0.0070  0.0067  0.0067
      *pz      0.0056  0.0164  0.0156  0.0167
[...]
   112 C12    *d0       -0.0007   -0.0124   -0.0023   -0.0026   -0.0035    0.0021
   113 C12    *d1+       0.0018    0.0084   -0.0010   -0.0000   -0.0004   -0.0008
   114 C12    *d2+      -0.0212    0.0050    0.0019    0.0005    0.0032   -0.0015
   115 H13    1s         0.3406    0.1095    0.0127    0.0055    0.0082   -0.0068
   116 H13    *s        -0.0640   -0.0211   -0.0257    0.0054   -0.0240   -0.0043
   117 H13    *px       -0.0002    0.0068    0.0002    0.0019   -0.0005   -0.0013
   118 H13    *py        0.0110    0.0008    0.0004    0.0001    0.0006   -0.0003
   119 H13    *pz       -0.0001   -0.0045    0.0002    0.0013   -0.0007    0.0000
   120 H14    1s        -0.0593    0.0160   -0.0563   -0.0358   -0.0427    0.0170
   121 H14    *s         0.0212   -0.0103   -0.0064   -0.0045   -0.0024    0.0019
   122 H14    *px       -0.0076    0.0049    0.0019    0.0009    0.0020   -0.0016
   123 H14    *py       -0.0037   -0.0036    0.0010    0.0010    0.0008   -0.0004
   124 H14    *pz       -0.0008   -0.0030   -0.0020   -0.0006   -0.0014    0.0006
   125 H15    1s         0.0301   -0.3357    0.0218    0.0184   -0.0001    0.0093
   126 H15    *s        -0.0068    0.0768   -0.0299   -0.0253    0.0197    0.0032
   127 H15    *px       -0.0059   -0.0024    0.0008   -0.0020    0.0021   -0.0001
   128 H15    *py       -0.0061    0.0040   -0.0003   -0.0007   -0.0007   -0.0005
   129 H15    *pz       -0.0003    0.0095   -0.0011   -0.0031    0.0006   -0.0013
   130 H16    1s         0.0604    0.0118    0.0560   -0.0362    0.0424    0.0172
   131 H16    *s        -0.0220   -0.0086    0.0065   -0.0046    0.0023    0.0019
   132 H16    *px       -0.0050    0.0027    0.0015   -0.0012    0.0013    0.0008
   133 H16    *py       -0.0070   -0.0051    0.0017   -0.0007    0.0018    0.0015
   134 H16    *pz        0.0013   -0.0029    0.0018   -0.0005    0.0012    0.0005
--
 
      Von Neumann Entropy (Root   1) =  0.93892
 

      Mulliken population analysis for root number:  1
      -----------------------------------------------
 
 
++    Molecular charges:
      ------------------
 
      Mulliken charges per centre and basis function type
      ---------------------------------------------------
 
                C1      C2      H3      H4      O1      O2      H7      C8      H9      H10     H11     C12   
      1s       2.0042  2.0039  1.2535  1.2659  2.0016  2.0006  1.0562  2.0039  1.2645  1.2645  1.2630  2.0039
      2s       1.3918  1.4492  0.0000  0.0000  1.8790  1.9017  0.0000  1.4491  0.0000  0.0000  0.0000  1.4492
      2px      1.0683  1.1624  0.0000  0.0000  1.6079  1.7453  0.0000  1.1611  0.0000  0.0000  0.0000  1.0904
      2pz      0.9030  1.1775  0.0000  0.0000  1.3058  0.9846  0.0000  1.1198  0.0000  0.0000  0.0000  1.1770
      2py      1.0601  1.0983  0.0000  0.0000  1.4138  1.6353  0.0000  1.1497  0.0000  0.0000  0.0000  1.1709
      *s      -0.1883 -0.4411 -0.3372 -0.3280  0.0170 -0.0617 -0.3250 -0.4461 -0.3315 -0.3315 -0.3290 -0.4411
      *px     -0.0740 -0.1762  0.0070  0.0210  0.0306 -0.0072  0.0317 -0.1756  0.0062  0.0211  0.0070 -0.1818
      *pz     -0.1087 -0.1814  0.0163  0.0055 -0.0013  0.0228  0.0117 -0.1912  0.0047  0.0047  0.0168 -0.1805
      *py     -0.0761 -0.1799  0.0080  0.0042  0.0229 -0.0466  0.0376 -0.1759  0.0199  0.0050  0.0070 -0.1750
      *d2+     0.0389  0.0178  0.0000  0.0000  0.0007  0.0009  0.0000  0.0175  0.0000  0.0000  0.0000  0.0171
      *d1+     0.0333  0.0055  0.0000  0.0000  0.0027  0.0004  0.0000  0.0085  0.0000  0.0000  0.0000  0.0097
      *d0      0.0361  0.0123  0.0000  0.0000  0.0032  0.0013  0.0000  0.0139  0.0000  0.0000  0.0000  0.0120
      *d1-     0.0370  0.0125  0.0000  0.0000  0.0030  0.0006  0.0000  0.0117  0.0000  0.0000  0.0000  0.0086
      *d2-     0.0243  0.0085  0.0000  0.0000  0.0007  0.0041  0.0000  0.0053  0.0000  0.0000  0.0000  0.0091
      Total    6.1500  5.9695  0.9477  0.9685  8.2876  8.1819  0.8122  5.9516  0.9637  0.9637  0.9648  5.9697
 
      N-E     -0.1500  0.0305  0.0523  0.0315 -0.2876 -0.1819  0.1878  0.0484  0.0363  0.0363  0.0352  0.0303
 
                H13     H14     H15     H16   
      1s       1.2659  1.2704  1.2535  1.2704
      2s       0.0000  0.0000  0.0000  0.0000
      2px      0.0000  0.0000  0.0000  0.0000
      2pz      0.0000  0.0000  0.0000  0.0000
      2py      0.0000  0.0000  0.0000  0.0000
      *s      -0.3280 -0.3248 -0.3370 -0.3248
      *px      0.0054  0.0074  0.0059  0.0070
      *pz      0.0056  0.0156  0.0163  0.0159
      *py      0.0197  0.0077  0.0090  0.0079
      *d2+     0.0000  0.0000  0.0000  0.0000
      *d1+     0.0000  0.0000  0.0000  0.0000
      *d0      0.0000  0.0000  0.0000  0.0000
      *d1-     0.0000  0.0000  0.0000  0.0000
      *d2-     0.0000  0.0000  0.0000  0.0000
      Total    0.9686  0.9763  0.9478  0.9764
 
      N-E      0.0314  0.0237  0.0522  0.0236
 
      Total electronic charge=   50.000000
 
      Total            charge=   -0.000000
--
 
 

      Expectation values of various properties for root number:  1
      -----------------------------------------------------------
 
 
++    Molecular properties:
      ---------------------
 
      Charge (e):
                      =   -0.0000
      Dipole Moment (Debye):
      Origin of the operator (Ang)=    0.0000    0.0000    0.0000
                   X=  3.9067E-01               Y= -6.0165E-01               Z= -1.3192E+00           Total=  1.5017E+00
      Quadrupole Moment (Debye*Ang):
      Origin of the operator (Ang)=   -0.0178    0.1441    0.1055
                  XX= -3.8771E+01              XY= -1.1022E-01              XZ=  1.8603E+00              YY= -3.8975E+01
                  YZ= -2.1673E+00              ZZ= -3.5951E+01
      In traceless form (Debye*Ang)
                  XX= -1.3078E+00              XY= -1.6533E-01              XZ=  2.7905E+00              YY= -1.6145E+00
                  YZ= -3.2510E+00              ZZ=  2.9224E+00
--
 
      Von Neumann Entropy (Root   2) =  1.05622
 

      Mulliken population analysis for root number:  2
      -----------------------------------------------
 
 
++    Molecular charges:
      ------------------
 
      Mulliken charges per centre and basis function type
      ---------------------------------------------------
 
                C1      C2      H3      H4      O1      O2      H7      C8      H9      H10     H11     C12   
      1s       2.0042  2.0039  1.2536  1.2661  2.0016  2.0006  1.0550  2.0039  1.2642  1.2642  1.2666  2.0039
      2s       1.3919  1.4480  0.0000  0.0000  1.8791  1.9018  0.0000  1.4515  0.0000  0.0000  0.0000  1.4480
      2px      1.0689  1.1627  0.0000  0.0000  1.3004  1.7102  0.0000  1.1621  0.0000  0.0000  0.0000  1.0839
      2pz      0.9027  1.1777  0.0000  0.0000  1.5537  1.0434  0.0000  1.1282  0.0000  0.0000  0.0000  1.1772
      2py      1.0597  1.0920  0.0000  0.0000  1.4734  1.6159  0.0000  1.1520  0.0000  0.0000  0.0000  1.1711
      *s      -0.1883 -0.4408 -0.3369 -0.3298  0.0169 -0.0618 -0.3228 -0.4465 -0.3308 -0.3308 -0.3287 -0.4407
      *px     -0.0752 -0.1760  0.0070  0.0209  0.0194 -0.0083  0.0314 -0.1754  0.0062  0.0211  0.0070 -0.1818
      *pz     -0.1090 -0.1820  0.0163  0.0055  0.0057  0.0240  0.0121 -0.1903  0.0047  0.0047  0.0169 -0.1811
      *py     -0.0763 -0.1799  0.0079  0.0043  0.0254 -0.0473  0.0374 -0.1758  0.0199  0.0050  0.0071 -0.1749
      *d2+     0.0332  0.0178  0.0000  0.0000  0.0007  0.0009  0.0000  0.0174  0.0000  0.0000  0.0000  0.0171
      *d1+     0.0313  0.0054  0.0000  0.0000  0.0027  0.0004  0.0000  0.0086  0.0000  0.0000  0.0000  0.0097
      *d0      0.0440  0.0123  0.0000  0.0000  0.0033  0.0014  0.0000  0.0138  0.0000  0.0000  0.0000  0.0121
      *d1-     0.0370  0.0125  0.0000  0.0000  0.0030  0.0006  0.0000  0.0118  0.0000  0.0000  0.0000  0.0085
      *d2-     0.0248  0.0086  0.0000  0.0000  0.0008  0.0041  0.0000  0.0053  0.0000  0.0000  0.0000  0.0092
      Total    6.1490  5.9622  0.9479  0.9671  8.2860  8.1858  0.8130  5.9666  0.9642  0.9642  0.9688  5.9621
 
      N-E     -0.1490  0.0378  0.0521  0.0329 -0.2860 -0.1858  0.1870  0.0334  0.0358  0.0358  0.0312  0.0379
 
                H13     H14     H15     H16   
      1s       1.2662  1.2681  1.2536  1.2682
      2s       0.0000  0.0000  0.0000  0.0000
      2px      0.0000  0.0000  0.0000  0.0000
      2pz      0.0000  0.0000  0.0000  0.0000
      2py      0.0000  0.0000  0.0000  0.0000
      *s      -0.3297 -0.3249 -0.3368 -0.3249
      *px      0.0055  0.0074  0.0059  0.0070
      *pz      0.0056  0.0156  0.0163  0.0158
      *py      0.0197  0.0077  0.0090  0.0079
      *d2+     0.0000  0.0000  0.0000  0.0000
      *d1+     0.0000  0.0000  0.0000  0.0000
      *d0      0.0000  0.0000  0.0000  0.0000
      *d1-     0.0000  0.0000  0.0000  0.0000
      *d2-     0.0000  0.0000  0.0000  0.0000
      Total    0.9672  0.9739  0.9481  0.9740
 
      N-E      0.0328  0.0261  0.0519  0.0260
 
      Total electronic charge=   50.000000
 
      Total            charge=   -0.000000
--
 
 

      Expectation values of various properties for root number:  2
      -----------------------------------------------------------
 
 
++    Molecular properties:
      ---------------------
 
      Charge (e):
                      =   -0.0000
      Dipole Moment (Debye):
      Origin of the operator (Ang)=    0.0000    0.0000    0.0000
                   X=  3.0152E-01               Y= -4.8890E-01               Z= -1.2747E+00           Total=  1.3981E+00
      Quadrupole Moment (Debye*Ang):
      Origin of the operator (Ang)=   -0.0178    0.1441    0.1055
                  XX= -3.8231E+01              XY=  7.6611E-01              XZ=  2.2920E+00              YY= -3.8927E+01
                  YZ= -2.8651E+00              ZZ= -3.6877E+01
      In traceless form (Debye*Ang)
                  XX= -3.2885E-01              XY=  1.1492E+00              XZ=  3.4379E+00              YY= -1.3732E+00
                  YZ= -4.2977E+00              ZZ=  1.7021E+00
--
 
      Von Neumann Entropy (Root   3) =  1.05955
 

      Mulliken population analysis for root number:  3
      -----------------------------------------------
 
 
++    Molecular charges:
      ------------------
 
      Mulliken charges per centre and basis function type
      ---------------------------------------------------
 
                C1      C2      H3      H4      O1      O2      H7      C8      H9      H10     H11     C12   
      1s       2.0042  2.0039  1.2535  1.2659  2.0016  2.0006  1.0558  2.0039  1.2644  1.2644  1.2634  2.0039
      2s       1.3919  1.4491  0.0000  0.0000  1.8794  1.9017  0.0000  1.4494  0.0000  0.0000  0.0000  1.4491
      2px      1.0683  1.1624  0.0000  0.0000  1.5878  1.2024  0.0000  1.1612  0.0000  0.0000  0.0000  1.0902
      2pz      0.9037  1.1775  0.0000  0.0000  1.3280  1.8382  0.0000  1.1207  0.0000  0.0000  0.0000  1.1770
      2py      1.0601  1.0982  0.0000  0.0000  1.4166  1.3232  0.0000  1.1500  0.0000  0.0000  0.0000  1.1709
      *s      -0.1883 -0.4411 -0.3380 -0.3281  0.0167 -0.0618 -0.3231 -0.4461 -0.3315 -0.3314 -0.3289 -0.4410
      *px     -0.0739 -0.1762  0.0070  0.0210  0.0296 -0.0247  0.0255 -0.1756  0.0062  0.0211  0.0070 -0.1818
      *pz     -0.1082 -0.1814  0.0163  0.0055 -0.0013  0.0464  0.0205 -0.1911  0.0047  0.0047  0.0168 -0.1805
      *py     -0.0760 -0.1799  0.0080  0.0042  0.0227 -0.0569  0.0339 -0.1759  0.0199  0.0050  0.0070 -0.1751
      *d2+     0.0385  0.0178  0.0000  0.0000  0.0007  0.0006  0.0000  0.0175  0.0000  0.0000  0.0000  0.0171
      *d1+     0.0333  0.0055  0.0000  0.0000  0.0027  0.0004  0.0000  0.0085  0.0000  0.0000  0.0000  0.0097
      *d0      0.0367  0.0123  0.0000  0.0000  0.0033  0.0014  0.0000  0.0139  0.0000  0.0000  0.0000  0.0120
      *d1-     0.0371  0.0125  0.0000  0.0000  0.0031  0.0007  0.0000  0.0117  0.0000  0.0000  0.0000  0.0086
      *d2-     0.0244  0.0085  0.0000  0.0000  0.0007  0.0041  0.0000  0.0053  0.0000  0.0000  0.0000  0.0091
      Total    6.1518  5.9691  0.9469  0.9684  8.2916  8.1765  0.8126  5.9532  0.9638  0.9638  0.9653  5.9693
 
      N-E     -0.1518  0.0309  0.0531  0.0316 -0.2916 -0.1765  0.1874  0.0468  0.0362  0.0362  0.0347  0.0307
 
                H13     H14     H15     H16   
      1s       1.2659  1.2701  1.2535  1.2701
      2s       0.0000  0.0000  0.0000  0.0000
      2px      0.0000  0.0000  0.0000  0.0000
      2pz      0.0000  0.0000  0.0000  0.0000
      2py      0.0000  0.0000  0.0000  0.0000
      *s      -0.3281 -0.3248 -0.3379 -0.3248
      *px      0.0054  0.0074  0.0060  0.0070
      *pz      0.0056  0.0156  0.0164  0.0159
      *py      0.0197  0.0077  0.0090  0.0079
      *d2+     0.0000  0.0000  0.0000  0.0000
      *d1+     0.0000  0.0000  0.0000  0.0000
      *d0      0.0000  0.0000  0.0000  0.0000
      *d1-     0.0000  0.0000  0.0000  0.0000
      *d2-     0.0000  0.0000  0.0000  0.0000
      Total    0.9685  0.9761  0.9470  0.9761
 
      N-E      0.0315  0.0239  0.0530  0.0239
 
      Total electronic charge=   50.000000
 
      Total            charge=   -0.000000
--
 
 

      Expectation values of various properties for root number:  3
      -----------------------------------------------------------
 
 
++    Molecular properties:
      ---------------------
 
      Charge (e):
                      =   -0.0000
      Dipole Moment (Debye):
      Origin of the operator (Ang)=    0.0000    0.0000    0.0000
                   X=  3.6414E-01               Y= -5.6577E-01               Z= -1.2801E+00           Total=  1.4461E+00
      Quadrupole Moment (Debye*Ang):
      Origin of the operator (Ang)=   -0.0178    0.1441    0.1055
                  XX= -3.8125E+01              XY=  4.7820E-01              XZ=  1.9671E+00              YY= -3.8640E+01
                  YZ= -2.4557E+00              ZZ= -3.7066E+01
      In traceless form (Debye*Ang)
                  XX= -2.7217E-01              XY=  7.1730E-01              XZ=  2.9507E+00              YY= -1.0444E+00
                  YZ= -3.6835E+00              ZZ=  1.3165E+00
--
 
      Von Neumann Entropy (Root   4) =  0.99970
 

      Mulliken population analysis for root number:  4
      -----------------------------------------------
 
 
++    Molecular charges:
      ------------------
 
      Mulliken charges per centre and basis function type
      ---------------------------------------------------
 
                C1      C2      H3      H4      O1      O2      H7      C8      H9      H10     H11     C12   
      1s       2.0042  2.0039  1.2535  1.2662  2.0016  2.0006  1.0547  2.0039  1.2642  1.2641  1.2669  2.0039
      2s       1.3919  1.4479  0.0000  0.0000  1.8795  1.9019  0.0000  1.4517  0.0000  0.0000  0.0000  1.4479
      2px      1.0690  1.1627  0.0000  0.0000  1.2805  1.1670  0.0000  1.1622  0.0000  0.0000  0.0000  1.0836
      2pz      0.9032  1.1777  0.0000  0.0000  1.5727  1.8977  0.0000  1.1289  0.0000  0.0000  0.0000  1.1772
      2py      1.0597  1.0917  0.0000  0.0000  1.4790  1.3031  0.0000  1.1522  0.0000  0.0000  0.0000  1.1711
      *s      -0.1883 -0.4408 -0.3375 -0.3299  0.0167 -0.0618 -0.3214 -0.4465 -0.3307 -0.3307 -0.3286 -0.4407
      *px     -0.0751 -0.1760  0.0070  0.0209  0.0185 -0.0257  0.0252 -0.1754  0.0062  0.0211  0.0070 -0.1818
      *pz     -0.1085 -0.1819  0.0164  0.0055  0.0062  0.0478  0.0211 -0.1903  0.0047  0.0047  0.0169 -0.1811
      *py     -0.0762 -0.1799  0.0079  0.0043  0.0254 -0.0575  0.0338 -0.1758  0.0199  0.0050  0.0071 -0.1750
      *d2+     0.0329  0.0178  0.0000  0.0000  0.0007  0.0006  0.0000  0.0174  0.0000  0.0000  0.0000  0.0171
      *d1+     0.0312  0.0054  0.0000  0.0000  0.0027  0.0005  0.0000  0.0086  0.0000  0.0000  0.0000  0.0097
      *d0      0.0445  0.0123  0.0000  0.0000  0.0034  0.0015  0.0000  0.0138  0.0000  0.0000  0.0000  0.0121
      *d1-     0.0371  0.0125  0.0000  0.0000  0.0030  0.0007  0.0000  0.0118  0.0000  0.0000  0.0000  0.0085
      *d2-     0.0249  0.0086  0.0000  0.0000  0.0008  0.0041  0.0000  0.0053  0.0000  0.0000  0.0000  0.0092
      Total    6.1504  5.9618  0.9473  0.9670  8.2905  8.1803  0.8133  5.9679  0.9642  0.9642  0.9692  5.9617
 
      N-E     -0.1504  0.0382  0.0527  0.0330 -0.2905 -0.1803  0.1867  0.0321  0.0358  0.0358  0.0308  0.0383
 
                H13     H14     H15     H16   
      1s       1.2662  1.2680  1.2536  1.2681
      2s       0.0000  0.0000  0.0000  0.0000
      2px      0.0000  0.0000  0.0000  0.0000
      2pz      0.0000  0.0000  0.0000  0.0000
      2py      0.0000  0.0000  0.0000  0.0000
      *s      -0.3298 -0.3249 -0.3374 -0.3249
      *px      0.0055  0.0074  0.0059  0.0070
      *pz      0.0056  0.0156  0.0164  0.0158
      *py      0.0197  0.0077  0.0090  0.0079
      *d2+     0.0000  0.0000  0.0000  0.0000
      *d1+     0.0000  0.0000  0.0000  0.0000
      *d0      0.0000  0.0000  0.0000  0.0000
      *d1-     0.0000  0.0000  0.0000  0.0000
      *d2-     0.0000  0.0000  0.0000  0.0000
      Total    0.9671  0.9738  0.9474  0.9739
 
      N-E      0.0329  0.0262  0.0526  0.0261
 
      Total electronic charge=   50.000000
 
      Total            charge=   -0.000000
--
 
 

      Expectation values of various properties for root number:  4
      -----------------------------------------------------------
 
 
++    Molecular properties:
      ---------------------
 
      Charge (e):
                      =   -0.0000
      Dipole Moment (Debye):
      Origin of the operator (Ang)=    0.0000    0.0000    0.0000
                   X=  2.7641E-01               Y= -4.5540E-01               Z= -1.2379E+00           Total=  1.3476E+00
      Quadrupole Moment (Debye*Ang):
      Origin of the operator (Ang)=   -0.0178    0.1441    0.1055
                  XX= -3.7590E+01              XY=  1.3435E+00              XZ=  2.3695E+00              YY= -3.8589E+01
                  YZ= -3.1113E+00              ZZ= -3.7932E+01
      In traceless form (Debye*Ang)
                  XX=  6.7070E-01              XY=  2.0152E+00              XZ=  3.5542E+00              YY= -8.2841E-01
                  YZ= -4.6669E+00              ZZ=  1.5771E-01
--
 
 
      Input file to MOLDEN was generated!
 
 
      Input file to MOLDEN was generated!
 
 
      Input file to MOLDEN was generated!
 
 
      Input file to MOLDEN was generated!
 
 
      Input file to MOLDEN was generated!
 
      Average orbitals are written to the RASORB file
      Natural orbitals for root   1 are written to the RASORB.1 file
      Natural orbitals for root   2 are written to the RASORB.2 file
      Natural orbitals for root   3 are written to the RASORB.3 file
      Natural orbitals for root   4 are written to the RASORB.4 file
      Spin density orbitals for root   1 are written to the SPDORB.1 file
      Spin density orbitals for root   2 are written to the SPDORB.2 file
      Spin density orbitals for root   3 are written to the SPDORB.3 file
      Spin density orbitals for root   4 are written to the SPDORB.4 file
 
--- Stop Module: last_energy at Wed Jul  8 13:48:24 2026 /rc=_RC_ALL_IS_WELL_ ---
*** files: relaxed_scan_tbhp_casscf.rasscf.molden relaxed_scan_tbhp_casscf.rasscf.molden.1 relaxed_scan_tbhp_casscf.rasscf.molden.2 relaxed_scan_tbhp_casscf.rasscf.molden.3
           relaxed_scan_tbhp_casscf.rasscf.molden.4 relaxed_scan_tbhp_casscf.RasOrb relaxed_scan_tbhp_casscf.RasOrb.1 relaxed_scan_tbhp_casscf.RasOrb.2
           relaxed_scan_tbhp_casscf.RasOrb.3 relaxed_scan_tbhp_casscf.RasOrb.4 relaxed_scan_tbhp_casscf.SpdOrb.1 relaxed_scan_tbhp_casscf.SpdOrb.2 relaxed_scan_tbhp_casscf.SpdOrb.3
           relaxed_scan_tbhp_casscf.SpdOrb.4 xmldump
    saved to directory /vscratch/grp-cyberwksp21/hclifford/openmolcas/PES/runs_relaxed_s1/R_2p40
--- Module last_energy spent 34 seconds ---

>>> END DO

.##################.
.# Happy landing! #.
.##################.

    Timing: Wall=1682.17 User=1314.66 System=267.03
