   This run of MOLCAS is using the pymolcas driver

                             OPE
                             OPE          NMOL  CASOP  ENMOLC A   SO
                 OPE        NMOLC        AS  OP EN  MO LC     AS  OP
                OPENM       OL CA        SO  PE NM  OL CA     SOP EN
                OP EN      MO   LC       AS  OP ENMOL  CASO   PENMOL
                OP  EN     MO   LC       AS  OP EN     MO     LC ASO
               OP   E  NMOL  C  AS       OP  EN MO     LC     AS  OP
               OP  E   NMO   LC AS        OPEN  MO     LCASOP EN   M
               O  PEN   MO  LCA  SO
            OPE   NMO   L   CAS    OP
        OPENMOL  CASOP     ENMOL   CASOPE
     OPENMOLCA   SOPENMOLCASOPEN   MOLCASOPE
    OPENMOLCAS   OP           EN   MOL    CAS
    OPENMOLCAS       OP  ENM        O     LCA
    OPENMOLCAS    OPEN  MOLCASO     P  E  NMO
    OPENMOLCAS     OP               E  N  MOL
    OPENMOLCA   SO           PENM   O  L  CAS    OPEN    MO    LCAS
    OPENMOLCA   SOP           ENM   O  L  CAS   OP  EN  MOLC  AS   O
    OPENMOLCA   SOPE           NM      O  LCA   S      OP  EN MO
    OPENMOLC                AS         O  PEN   M      OL  CA  SOPE
    OPENMO        LCASOPE  NMOL        C  ASO   P      ENMOLC     AS
    OPE     NMO      LCA  SO     P     E   NM   OL  CA SO  PE N   MO
          OPENMOLCA            SOPE   NMO        LCAS  O    P  ENMO
     OPENMOLCASOPENMOLCASOPENMOLCASOPENMOLCA
        OPENMOLCASOPENMOLCASOPENMOLCASOPE
            OPENMOLCASOPENMOLCASOPENM
               OPENMOLCASOPENMOLCA        version: v23.10 ?
                   OPENMOLCASO
                       OPE                tag:

 OpenMolcas is free software; you can redistribute it and/or modify it
 under the terms of the GNU Lesser General Public License version 2.1.
 OpenMolcas is distributed in the hope that it will be useful, but it
 is provided "as is" and without any express or implied warranties.
 For more details see the full text of the license in the file
 LICENSE or in <http://www.gnu.org/licenses/>.

                 Copyright (C) The OpenMolcas Authors
           For the author list and the recommended citation,
                   consult the file CONTRIBUTORS.md

           *************************************************
           * pymolcas version py2.25                       *
           *   build 2b27fa14244bdc32cb1957e6230cd793      *
           *   (after the EMIL interpreter by V. Veryazov) *
           *************************************************

configuration info
------------------
Host name: cpn-h22-29.core.ccr.buffalo.edu (Linux)
C Compiler ID: Intel
C flags: -O2 -xCore-AVX512 -ftz -fp-speculation=safe -fp-model source -std=gnu99 -gcc-sys -qopenmp
Fortran Compiler ID: Intel
Fortran flags: -O2 -xCore-AVX512 -ftz -fp-speculation=safe -fp-model source  -fpp -i8 -heap-arrays -qopenmp
Definitions: _MOLCAS_;_I8_;_LINUX_;_MOLCAS_MPP_;_SCALAPACK_;_GA_
Parallel: ON (GA=ON)


   -----------------------------------------------------------------------------------------------------------------------------------------------------
  |
  |           Project: relaxed_scan_tbhp_casscf
  |    Submitted from: /vscratch/grp-cyberwksp21/hclifford/openmolcas/PES/runs_relaxed_s1/R_2p20
  |      Scratch area: /vscratch/grp-cyberwksp21/hclifford/openmolcas/PES/runs_relaxed_s1/R_2p20/molcas_scratch_R_2p20/relaxed_scan_tbhp_casscf
  |   Save outputs to: /vscratch/grp-cyberwksp21/hclifford/openmolcas/PES/runs_relaxed_s1/R_2p20
  |            Molcas: /cvmfs/soft.ccr.buffalo.edu/versions/2023.01/easybuild/software/avx512/MPI/intel/2022.0.1/impi/2021.5.0/openmolcas/23.10
  |
  | Scratch area is empty
  |
  |    MOLCAS_DRIVER = /cvmfs/soft.ccr.buffalo.edu/versions/2023.01/easybuild/software/avx512/MPI/intel/2022.0.1/impi/2021.5.0/openmolcas/23.10/pymolcas
  |    MOLCAS_MOLDEN = ON
  |    MOLCAS_NPROCS = 1
  |     MOLCAS_PRINT = NORMAL
  |    MOLCAS_SOURCE = /cvmfs/soft.ccr.buffalo.edu/versions/2023.01/easybuild/software/avx512/MPI/intel/2022.0.1/impi/2021.5.0/openmolcas/23.10
  | MOLCAS_STRUCTURE = 0
  |
   -----------------------------------------------------------------------------------------------------------------------------------------------------

++ ---------   Input file   ---------

&GATEWAY
  Coord = tbhp.xyz
  Basis = cc-pVDZ
  Group = NoSymm
  Constraints
    rOO = Bond O1 O2
  Values
    rOO = 2.20 Angstrom
  End of Constraints

>>> DO WHILE

  &SEWARD

  &RASSCF
    Spin = 1
    NActEl = 6 0 0
    Inactive = 22
    Ras2 = 4
    CiRoot = 4 4 1
    RlxRoot = 2
    LumOrb
    LevShift = 1.0

  &ALASKA

  &SLAPAF

>>> END DO

-- ----------------------------------

--- Start Module: gateway at Wed Jul  8 12:55:12 2026 ---
 
()()()()()()()()()()()()()()()()()()()()()()()()()()()()()()()()()()()()()()()()()()()()()()()()()()

                                              &GATEWAY

                       only a single process is used, running in SERIAL mode
                        available to each process: 12 GB of memory, 1 thread
                                            pid: 233981
()()()()()()()()()()()()()()()()()()()()()()()()()()()()()()()()()()()()()()()()()()()()()()()()()()
 
 
++    Symmetry information:
      ---------------------
 
                    Character Table for C1 
 
                             E  
                    a        1  x, y, xy, Rz, z, xz, Ry, yz, Rx, I
--
 
 
++    Basis set information:
      ----------------------
 
 
      Basis set label: C.CC-PVDZ.........
 
      Electronic valence basis set:
      ------------------
      Associated Effective Charge   6.000000 au
      Associated Actual Charge      6.000000 au
      Nuclear Model: Point charge
 
      Shell  nPrim  nBasis  Cartesian Spherical Contaminant
         s       9       3        X                  
         p       4       2        X                  
         d       1       1                 X         
 
 
      Basis set label: H.CC-PVDZ.........
 
      Electronic valence basis set:
      ------------------
      Associated Effective Charge   1.000000 au
      Associated Actual Charge      1.000000 au
      Nuclear Model: Point charge
 
      Shell  nPrim  nBasis  Cartesian Spherical Contaminant
         s       4       2        X                  
         p       1       1        X                  
 
 
      Basis set label: O.CC-PVDZ.........
 
      Electronic valence basis set:
      ------------------
      Associated Effective Charge   8.000000 au
      Associated Actual Charge      8.000000 au
      Nuclear Model: Point charge
 
      Shell  nPrim  nBasis  Cartesian Spherical Contaminant
         s       9       3        X                  
         p       4       2        X                  
         d       1       1                 X         
 
 
      Basis set label: H.CC-PVDZ.........
 
      Electronic valence basis set:
      ------------------
      Associated Effective Charge   1.000000 au
      Associated Actual Charge      1.000000 au
      Nuclear Model: Point charge
 
      Shell  nPrim  nBasis  Cartesian Spherical Contaminant
         s       4       2        X                  
         p       1       1        X                  
 
 
      Basis set label: C.CC-PVDZ.........
 
      Electronic valence basis set:
      ------------------
      Associated Effective Charge   6.000000 au
      Associated Actual Charge      6.000000 au
      Nuclear Model: Point charge
 
      Shell  nPrim  nBasis  Cartesian Spherical Contaminant
         s       9       3        X                  
         p       4       2        X                  
         d       1       1                 X         
 
 
      Basis set label: H.CC-PVDZ.........
 
      Electronic valence basis set:
      ------------------
      Associated Effective Charge   1.000000 au
      Associated Actual Charge      1.000000 au
      Nuclear Model: Point charge
 
      Shell  nPrim  nBasis  Cartesian Spherical Contaminant
         s       4       2        X                  
         p       1       1        X                  
 
 
      Basis set label: C.CC-PVDZ.........
 
      Electronic valence basis set:
      ------------------
      Associated Effective Charge   6.000000 au
      Associated Actual Charge      6.000000 au
      Nuclear Model: Point charge
 
      Shell  nPrim  nBasis  Cartesian Spherical Contaminant
         s       9       3        X                  
         p       4       2        X                  
         d       1       1                 X         
 
 
      Basis set label: H.CC-PVDZ.........
 
      Electronic valence basis set:
      ------------------
      Associated Effective Charge   1.000000 au
      Associated Actual Charge      1.000000 au
      Nuclear Model: Point charge
 
      Shell  nPrim  nBasis  Cartesian Spherical Contaminant
         s       4       2        X                  
         p       1       1        X                  
--
 
 
++    Molecular structure info:
      -------------------------
 
                    ************************************************ 
                    **** Cartesian Coordinates / Bohr, Angstrom **** 
                    ************************************************ 
 
     Center  Label                x              y              z                     x              y              z
        1      C1              -0.021542       0.141236      -0.863799             -0.011400       0.074739      -0.457103
        2      C2               0.831168       2.894138      -0.976131              0.439835       1.531512      -0.516547
        3      H3               0.063091       3.973818       0.597379              0.033386       2.102854       0.316120
        4      H4               2.889618       3.006368      -0.897928              1.529120       1.590901      -0.475163
        5      O1               1.048443      -1.087412       1.282909              0.554812      -0.575434       0.678886
        6      O2              -0.452279       0.819701       4.658514             -0.239336       0.433767       2.465179
        7      H7               1.263745      -0.351457       4.767996              0.668745      -0.185983       2.523115
        8      C8               1.105388      -1.375518      -3.048072              0.584946      -0.727893      -1.612970
        9      H9               0.556259      -3.358152      -2.914267              0.294360      -1.777058      -1.542164
       10      H10              3.164481      -1.268188      -3.022044              1.674571      -0.671096      -1.599197
       11      H11              0.434286      -0.629140      -4.848329              0.229814      -0.332927      -2.565625
       12      C12             -2.895285      -0.095819      -0.822797             -1.532119      -0.050705      -0.435405
       13      H13             -3.445010      -2.076354      -0.655641             -1.823021      -1.098759      -0.346950
       14      H14             -3.697104       0.662660      -2.566952             -1.956423       0.350665      -1.358373
       15      H15             -3.702320       0.934206       0.764700             -1.959183       0.494360       0.404662
       16      H16              0.198038       3.766686      -2.736247              0.104797       1.993244      -1.447959
 
                    ************************************************* 
                    **** InterNuclear Distances / Bohr, Angstrom **** 
                    ************************************************* 
 
     Atom centers         Bohr        Angstrom
    3 H3        2 C2      2.057082        1.088561
   15 H15      12 C12     2.057280        1.088666
   11 H11       8 C8      2.061161        1.090720
    9 H9        8 C8      2.061622        1.090963
   10 H10       8 C8      2.062053        1.091191
   13 H13      12 C12     2.062197        1.091268
    4 H4        2 C2      2.062990        1.091687
   14 H14      12 C12     2.064025        1.092235
   16 H16       2 C2    
    7 H7        6 O2      2.080465        1.100935
    5 O1        1 C1      2.694958        1.426110
   12 C12       1 C1      2.883795        1.526039
    2 C2        1 C1      2.884130        1.526216
    8 C8        1 C1      2.888177        1.528357
   15 H15      13 H13     3.338719        1.766774
    4 H4        3 H3      3.340833        1.767893
   15 H15      14 H14     3.342704        1.768883
   16 H16       3 H3      3.342780        1.768923
   10 H10       9 H9      3.344008        1.769573
   11 H11      10 H10     3.346292        1.770781
   16 H16       4 H4      3.346954        1.771132
   11 H11       9 H9      3.347086        1.771202
   14 H14      13 H13     3.349457        1.772456
    7 H7        5 O1      3.568447        1.888341
   11 H11       1 C1      4.083839        2.161075
   13 H13       1 C1      4.084258        2.161296
   14 H14       1 C1      4.084405        2.161374
    4 H4        1 C1      4.084728        2.161545
   16 H16       1 C1      4.086339        2.162397
    9 H9        1 C1      4.096827        2.167948
   10 H10       1 C1      4.098200        2.168674
   15 H15       1 C1      4.102308        2.170848
    3 H3        1 C1      4.102547        2.170974
    6 O2        5 O1      4.157397        2.200000
    8 C8        5 O1      4.340927        2.297119
   12 C12       5 O1      4.579328        2.423276
    5 O1        2 C2      4.582926        2.425180
   12 C12       8 C8      4.753406        2.515394
    8 C8        2 C2      4.753746        2.515574
   13 H13       9 H9      4.770174        2.524267
   12 C12       2 C2      4.780148        2.529545
   10 H10       4 H4      4.781134        2.530067
    9 H9        5 O1      4.797374        2.538661
   10 H10       5 O1      4.800304        2.540212
   15 H15       3 H3      4.842061        2.562308
   16 H16      11 H11     4.882622        2.583772
   14 H14      11 H11     4.893037        2.589284
   16 H16      14 H14     4.983550        2.637181
    5 O1        4 H4      4.990492        2.640855
   13 H13       5 O1      4.992705        2.642026
   15 H15       6 O2      5.073230        2.684638
    6 O2        3 H3      5.167869        2.734719
   13 H13       8 C8      5.188547        2.745661
   15 H15       5 O1      5.188952        2.745875
   12 C12       9 H9      5.189434        2.746130
   10 H10       2 C2      5.191827        2.747397
    8 C8        4 H4      5.196876        2.750068
    5 O1        3 H3      5.201626        2.752582
   12 C12       3 H3      5.227890        2.766480
   16 H16       8 C8      5.230945        2.768097
   15 H15       2 C2      5.236825        2.771209
   14 H14       8 C8      5.239235        2.772484
   11 H11       2 C2      5.250231        2.778302
   12 C12      11 H11     5.251227        2.778830
   14 H14       2 C2      5.292963        2.800915
   16 H16      12 C12     5.305553        2.807577
    6 O2        1 C1      5.580483        2.953064
--
 
 
            Nuclear Potential Energy            255.58205898 au
 
--- Stop Module: gateway at Wed Jul  8 12:55:13 2026 /rc=_RC_ALL_IS_WELL_ ---
*** files: xmldump
    saved to directory /vscratch/grp-cyberwksp21/hclifford/openmolcas/PES/runs_relaxed_s1/R_2p20

--- Start Module: seward at Wed Jul  8 12:55:13 2026 ---
 
()()()()()()()()()()()()()()()()()()()()()()()()()()()()()()()()()()()()()()()()()()()()()()()()()()

                                              &SEWARD

                       only a single process is used, running in SERIAL mode
                        available to each process: 12 GB of memory, 1 thread
                                            pid: 233985
()()()()()()()()()()()()()()()()()()()()()()()()()()()()()()()()()()()()()()()()()()()()()()()()()()
 
               SEWARD will generate:
                  Multipole Moment integrals up to order  2
                  Kinetic Energy integrals
                  Nuclear Attraction integrals (point charge)
                  One-Electron Hamiltonian integrals
                  Velocity integrals
                  Orbital angular momentum around (-0.0502  0.2130  0.1654 )
                  Velocity quadrupole around (-0.0502  0.2130  0.1654 )
                  Two-Electron Repulsion integrals
 
                   Integrals are discarded if absolute value <: 0.10E-13
                   Integral cutoff threshold is set to       <: 0.10E-15
 
            Nuclear Potential Energy            255.58205898 au
 
 
      Basis set specifications :
      Symmetry species         a  
      Basis functions          134
 
 
      Input file to MOLDEN was generated!
 
--- Stop Module: seward at Wed Jul  8 12:55:31 2026 /rc=_RC_ALL_IS_WELL_ ---
*** files: relaxed_scan_tbhp_casscf.GssOrb relaxed_scan_tbhp_casscf.guessorb.h5 relaxed_scan_tbhp_casscf.guessorb.molden xmldump
    saved to directory /vscratch/grp-cyberwksp21/hclifford/openmolcas/PES/runs_relaxed_s1/R_2p20
--- Module seward spent 17 seconds ---

*** symbolic link created: INPORB -> relaxed_scan_tbhp_casscf.GssOrb
--- Start Module: rasscf at Wed Jul  8 12:55:31 2026 ---
 
()()()()()()()()()()()()()()()()()()()()()()()()()()()()()()()()()()()()()()()()()()()()()()()()()()

                                              &RASSCF

                       only a single process is used, running in SERIAL mode
                        available to each process: 12 GB of memory, 1 thread
                                            pid: 233999
()()()()()()()()()()()()()()()()()()()()()()()()()()()()()()()()()()()()()()()()()()()()()()()()()()
 
 
      Header of the ONEINT file:
      --------------------------
      
      Integrals generated by Gateway/Seward, Wed Jul  8 12:55:13 2026
 
 
      OrdInt status: non-squared
 
 
      Cartesian coordinates in Angstrom:
      -----------------------------------------------------
      No.  Label        X            Y            Z        
      -----------------------------------------------------
       1   C1        -0.01139969   0.07473874  -0.45710275
       2   C2         0.43983524   1.53151203  -0.51654652
       3   H3         0.03338615   2.10285377   0.31611957
       4   H4         1.52912019   1.59090129  -0.47516326
       5   O1         0.55481218  -0.57543356   0.67888606
       6   O2        -0.23933595   0.43376687   2.46517921
       7   H7         0.66874488  -0.18598325   2.52311476
       8   C8         0.58494633  -0.72789299  -1.61297035
       9   H9         0.29435984  -1.77705775  -1.54216375
      10   H10        1.67457144  -0.67109611  -1.59919702
      11   H11        0.22981418  -0.33292659  -2.56562545
      12   C12       -1.53211881  -0.05070542  -0.43540531
      13   H13       -1.82302072  -1.09875916  -0.34695030
      14   H14       -1.95642321   0.35066475  -1.35837253
      15   H15       -1.95918318   0.49436032   0.40466163
      16   H16        0.10479738   1.99324446  -1.44795932
      -----------------------------------------------------
      Nuclear repulsion energy =  255.58205898
 
++    Wave function specifications:
      -----------------------------
 
      Number of closed shell electrons          44
      Number of electrons in active shells       6
      Max number of holes in RAS1 space          0
      Max nr of electrons in RAS3 space          0
      Number of inactive orbitals               22
      Number of active orbitals                  4
      Number of secondary orbitals             108
      Spin quantum number                      0.0
      State symmetry                             1
--
 
++    Orbital specifications:
      -----------------------
 
      Symmetry species                           1
                                                 a
      Frozen orbitals                            0
      Inactive orbitals                         22
      Active orbitals                            4
      RAS1 orbitals                              0
      RAS2 orbitals                              4
      RAS3 orbitals                              0
      Secondary orbitals                       108
      Deleted orbitals                           0
      Number of basis functions                134
--
 
++    CI expansion specifications:
      ----------------------------
 
      Number of CSFs                            10
      Number of determinants                    10
      Number of root(s) required                 4
      Root chosen for geometry opt.              2
      CI roots used                              1     2     3     4
      weights                                0.250 0.250 0.250 0.250
      highest root included in the CI            4
      max. size of the explicit Hamiltonian     10
--
 
++    Optimization specifications:
      ----------------------------
 
      RASSCF algorithm: Conventional
      Maximum number of macro iterations       200
      Maximum number of SX iterations          100
      Threshold for RASSCF energy            0.100E-07
      Threshold for max MO rotation          0.100E+00
      Threshold for max BLB element          0.100E-03
      Level shift parameter                  0.100E+01
      Make Quasi-Newton update
--
 
      The MO-coefficients are taken from the file:
      INPORB                                                                                                                                                                                                                                                          
      Title:Guess orbitals                                                                 
 
      Total molecular charge    0.00
 
      ************************************************************************************************************************
      *                                                                                                                      *
      *                                            Wave function control section                                             *
      *                                                                                                                      *
      ************************************************************************************************************************
 
 
                                         RASSCF iterations: Energy and convergence statistics
                                         ----------------------------------------------------
 
      Iter CI   SX   CI       RASSCF       Energy    max ROT     max BLB   max BLB  Level Ln srch  Step   QN   Walltime
          iter iter root      energy       change     param      element    value   shift minimum  type update hh:mm:ss
 Nr of preliminary CI iterations:   1
        1   1  100    0  -305.75498192    0.00E+00   0.11E+00*  22  28 1 -0.26E+00*  1.32   0.00    SX    NO    0:00:03
        2   1  100    0  -306.42707968   -0.67E+00*  0.70E-01   10  39 1  0.13E+00*  1.07   0.00    SX    NO    0:00:02
        3   1   82    0  -306.58215127   -0.16E+00* -0.50E-01    8  27 1  0.71E-01*  0.98   0.00    SX    NO    0:00:01
        4   1   29    0  -306.62513890   -0.43E-01*  0.49E-01    8  27 1  0.44E-01*  0.94   0.00    SX    NO    0:00:01
        5   1   13    0  -306.64232079   -0.17E-01*  0.56E-01    8  27 1  0.27E-01*  0.92   2.50    LS   YES    0:00:01
        6   1   16    0  -306.65401509   -0.12E-01*  0.80E-01   16  27 1 -0.16E-01*  0.90   1.81    QN   YES    0:00:01
        7   1   16    0  -306.66208768   -0.81E-02* -0.13E+00*  16  27 1 -0.18E-01*  0.88   2.40    QN   YES    0:00:01
        8   1   13    0  -306.67161277   -0.95E-02* -0.16E+00*  16  27 1 -0.18E-01*  0.87   2.28    QN   YES    0:00:01
        9   1   16    0  -306.68098105   -0.94E-02* -0.14E+00*  10  39 1 -0.18E-01*  0.87   2.50    LS   YES    0:00:01
       10   1   41    0  -306.69132155   -0.10E-01* -0.13E+00*  19  23 1  0.52E-01*  0.83   2.50    LS   YES    0:00:01
       11   1   16    0  -306.69840717   -0.71E-02*  0.16E+00*  22  28 1  0.51E-01*  0.83   2.50    QN   YES    0:00:01
       12   1   45    0  -306.72001643   -0.22E-01*  0.18E+00*  19  23 1  0.31E-01*  0.84   1.95    QN   YES    0:00:01
       13   1   26    0  -306.75473816   -0.35E-01* -0.14E+00*  20  26 1 -0.33E-01*  0.83   2.15    QN   YES    0:00:01
       14   1   20    0  -306.78674825   -0.32E-01*  0.75E-01   17  26 1 -0.32E-01*  0.82   1.30    QN   YES    0:00:01
       15   1   59    0  -306.80610734   -0.19E-01*  0.12E+00*  20  26 1 -0.30E-01*  0.82   1.85    QN   YES    0:00:01
       16   1   45    0  -306.83472331   -0.29E-01*  0.14E+00*  24 109 1  0.30E-01*  0.82   1.94    QN   YES    0:00:01
       17   1   42    0  -306.86214861   -0.27E-01*  0.82E-01    8  27 1  0.32E-01*  0.84   1.43    QN   YES    0:00:01
       18   1   32    0  -306.88103974   -0.19E-01* -0.60E-01    8  27 1  0.30E-01*  0.85   1.96    QN   YES    0:00:01
       19   1   11    0  -306.89961653   -0.19E-01* -0.35E-01   22  23 1  0.17E-01*  0.85   1.73    LS   YES    0:00:01
       20   1   13    0  -306.90365112   -0.40E-02* -0.35E-01   21  25 1  0.11E-01*  0.86   1.25    QN   YES    0:00:01
       21   1    9    0  -306.90643197   -0.28E-02* -0.21E-01   25 111 1 -0.66E-02*  0.86   1.65    LS   YES    0:00:01
       22   1    9    0  -306.90693864   -0.51E-03*  0.13E-01   25 111 1 -0.72E-02*  0.86   1.08    QN   YES    0:00:01
       23   1    8    0  -306.90752854   -0.59E-03*  0.12E-01   22  26 1 -0.35E-02*  0.85   1.43    QN   YES    0:00:01
       24   1    8    0  -306.90785336   -0.32E-03*  0.10E-01   26 114 1 -0.27E-02*  0.85   1.24    QN   YES    0:00:01
       25   1    8    0  -306.90799364   -0.14E-03*  0.91E-02   25 111 1  0.21E-02*  0.85   1.95    LS   YES    0:00:01
       26   1    8    0  -306.90803829   -0.45E-04* -0.43E-02   25 111 1  0.18E-02*  0.85   1.06    QN   YES    0:00:01
       27   1    8    0  -306.90810113   -0.63E-04* -0.42E-02   19  25 1  0.89E-03*  0.85   2.00    LS   YES    0:00:01
       28   1    7    0  -306.90812298   -0.22E-04* -0.16E-02   23 107 1  0.12E-02*  0.85   1.05    QN   YES    0:00:01
       29   1    7    0  -306.90813457   -0.12E-04* -0.11E-02   23 107 1  0.50E-03*  0.85   1.70    LS   YES    0:00:01
       30   1    7    0  -306.90813689   -0.23E-05*  0.86E-03   24  27 1 -0.30E-03*  0.85   0.99    QN   YES    0:00:01
       31   1    6    0  -306.90813844   -0.16E-05*  0.56E-03   24  27 1 -0.23E-03*  0.85   1.66    LS   YES    0:00:01
       32   1    6    0  -306.90813874   -0.29E-06*  0.17E-03   24  27 1 -0.18E-03*  0.85   1.01    QN   YES    0:00:01
       33   1    6    0  -306.90813903   -0.29E-06*  0.15E-03   24  27 1 -0.13E-03*  0.85   1.84    LS   YES    0:00:01
       34   1    6    0  -306.90813911   -0.82E-07* -0.71E-04   24 109 1 -0.10E-03*  0.85   1.05    QN   YES    0:00:01
       35   1    6    0  -306.90813918   -0.67E-07* -0.99E-04   24  27 1 -0.52E-04   0.85   2.40    LS   YES    0:00:01
       36   1    5    0  -306.90813921   -0.35E-07*  0.56E-04   24 129 1 -0.36E-04   0.85   1.01    QN   YES    0:00:01
       37   1    5    0  -306.90813923   -0.15E-07* -0.94E-04   24 109 1  0.21E-04   0.85   2.33    QN   YES    0:00:01
       38   1    5    0  -306.90813924   -0.12E-07*  0.35E-04   16  27 1  0.84E-05   0.85   1.17    QN   YES    0:00:01
       39   1    5    0  -306.90813924   -0.19E-08  -0.40E-04   24  27 1  0.88E-05   0.85   2.10    QN   YES    0:00:01
      Convergence after 39 iterations
       40   1    5    0  -306.90813924   -0.14E-08  -0.40E-04   24  27 1  0.60E-05   0.85   2.10    QN   YES    0:00:01
 
      ************************************************************************************************************************
                                                      Wave function printout:
                       occupation of active orbitals, and spin coupling of open shells (u,d: Spin up or down)
      ************************************************************************************************************************
 
      Note: transformation to natural orbitals
      has been made, which may change the order of the CSFs.
 
      printout of CI-coefficients larger than  0.05 for root  1
      energy=    -306.931017
      conf/sym  1111     Coeff  Weight
             1  2220  -0.84236 0.70956
             8  2022   0.53598 0.28728
 
      printout of CI-coefficients larger than  0.05 for root  2
      energy=    -306.909719
      conf/sym  1111     Coeff  Weight
             2  22ud   0.74837 0.56005
             5  2ud2  -0.23694 0.05614
             6  u22d  -0.28270 0.07992
             9  ud22   0.54863 0.30100
 
      printout of CI-coefficients larger than  0.05 for root  3
      energy=    -306.902241
      conf/sym  1111     Coeff  Weight
             2  22ud   0.29662 0.08798
             5  2ud2   0.59764 0.35717
             6  u22d   0.71153 0.50627
             9  ud22   0.21814 0.04758
 
      printout of CI-coefficients larger than  0.05 for root  4
      energy=    -306.889580
      conf/sym  1111     Coeff  Weight
             3  2202  -0.74635 0.55703
            10  0222   0.66252 0.43893
 
      Natural orbitals and occupation numbers for root  1
      sym 1:   1.999653   1.424420   1.996804   0.579124
 
      Natural orbitals and occupation numbers for root  2
      sym 1:   1.860354   1.863522   1.143480   1.132644
 
      Natural orbitals and occupation numbers for root  3
      sym 1:   1.152694   1.848655   1.843911   1.154740
 
      Natural orbitals and occupation numbers for root  4
      sym 1:   1.120283   1.998850   0.882712   1.998155
 
      ************************************************************************************************************************
      *                                                                                                                      *
      *                                                    Final results                                                     *
      *                                                                                                                      *
      ************************************************************************************************************************
 
 
++    Wave function specifications:
      -----------------------------
 
      Number of closed shell electrons          44
      Number of electrons in active shells       6
      Max number of holes in RAS1 space          0
      Max nr of electrons in RAS3 space          0
      Number of inactive orbitals               22
      Number of active orbitals                  4
      Number of secondary orbitals             108
      Spin quantum number                      0.0
      State symmetry                             1
--
 
++    Orbital specifications:
      -----------------------
 
      Symmetry species                           1
                                                 a
      Frozen orbitals                            0
      Inactive orbitals                         22
      Active orbitals                            4
      RAS1 orbitals                              0
      RAS2 orbitals                              4
      RAS3 orbitals                              0
      Secondary orbitals                       108
      Deleted orbitals                           0
      Number of basis functions                134
--
 
++    CI expansion specifications:
      ----------------------------
 
      Number of CSFs                            10
      Number of determinants                    10
      Number of root(s) required                 4
      CI roots used                              1     2     3     4
      weights                                0.250 0.250 0.250 0.250
      highest root included in the CI            4
      Root passed to geometry opt.               2
--
 
++    Final optimization conditions:
      ------------------------------
 
      Average CI energy                            -306.90813924
      RASSCF energy for state  2                   -306.90971938
      Super-CI energy                                -0.00000000
      RASSCF energy change                           -0.00000000
      Max change in MO coefficients              -0.410E-04
      Max non-diagonal density matrix element    -0.401E-04
      Maximum BLB matrix element                  0.600E-05
      (orbital pair  24,  27 in symmetry   1)
      Norm of electronic gradient            0.439E-01
--
 
 
      Final state energy(ies):
      ------------------------
 
::    RASSCF root number  1 Total energy:   -306.93101706
::    RASSCF root number  2 Total energy:   -306.90971938
::    RASSCF root number  3 Total energy:   -306.90224099
::    RASSCF root number  4 Total energy:   -306.88957955
 
++    Molecular orbitals:
      -------------------
 
      Pseudonatural active orbitals and approximate occupation numbers
 
 
 
 
      Molecular orbitals for symmetry species 1: a  
 
 
      Orbital                 1         2         3         4         5         6         7         8         9        10
      Energy           -20.5901  -20.5897  -11.2908  -11.2252  -11.2243  -11.2226   -1.3301   -1.2377   -1.0578   -0.9447
      Occ. No.           2.0000    2.0000    2.0000    2.0000    2.0000    2.0000    2.0000    2.0000    2.0000    2.0000
 
     1 C1     1s         0.0000   -0.0002   -1.0020    0.0046   -0.0046   -0.0045   -0.0100    0.0033   -0.0170   -0.0002
     2 C1     2s         0.0000   -0.0008   -0.0104   -0.0003    0.0004    0.0003    0.3382   -0.1107    0.4170   -0.0005
     3 C1     *s        -0.0006    0.0045    0.0171   -0.0006    0.0003    0.0005   -0.1220    0.0226    0.0039    0.0011
     4 C1     2px       -0.0000    0.0002   -0.0004   -0.0001    0.0001   -0.0003    0.0604   -0.0188   -0.0592   -0.1085
     5 C1     *px       -0.0002    0.0012   -0.0000   -0.0004    0.0003   -0.0006   -0.0280    0.0036    0.0065    0.0013
     6 C1     2py       -0.0000   -0.0002    0.0005   -0.0003   -0.0002   -0.0000   -0.0691    0.0217    0.0693   -0.2213
     7 C1     *py        0.0005   -0.0014    0.0001   -0.0006   -0.0004   -0.0003    0.0308   -0.0012   -0.0055    0.0115
     8 C1     2pz       -0.0001    0.0004   -0.0008    0.0000   -0.0003   -0.0000    0.1157   -0.0270   -0.1324   -0.0638
     9 C1     *pz        0.0005    0.0019   -0.0004   -0.0005   -0.0003    0.0006   -0.0548    0.0184    0.0150    0.0044
    10 C1     *d2-      -0.0000   -0.0000    0.0000    0.0001    0.0000   -0.0000   -0.0085    0.0024    0.0067   -0.0116
    11 C1     *d1-      -0.0000   -0.0001    0.0001    0.0000   -0.0001   -0.0001   -0.0155    0.0042    0.0134    0.0075
    12 C1     *d0       -0.0001    0.0001   -0.0000   -0.0001   -0.0000    0.0001    0.0107   -0.0025   -0.0127    0.0075
    13 C1     *d1+       0.0000    0.0001   -0.0000   -0.0001    0.0001    0.0000    0.0135   -0.0036   -0.0119   -0.0060
    14 C1     *d2+       0.0000    0.0000    0.0000   -0.0001    0.0000   -0.0001   -0.0012    0.0004    0.0007    0.0198
    15 C2     1s         0.0000   -0.0000   -0.0045   -1.0018    0.0100    0.0031   -0.0020    0.0007   -0.0115    0.0190
    16 C2     2s         0.0001   -0.0002    0.0003   -0.0104   -0.0006   -0.0006    0.0817   -0.0293    0.3663   -0.6168
    17 C2     *s        -0.0004   -0.0001   -0.0036    0.0123    0.0012    0.0013   -0.0317    0.0073   -0.1423    0.1885
    18 C2     2px        0.0000    0.0000    0.0001   -0.0000   -0.0001    0.0001   -0.0077    0.0019   -0.0321   -0.0072
    19 C2     *px        0.0001   -0.0003    0.0003   -0.0003    0.0002   -0.0008    0.0040    0.0025    0.0170    0.0011
    20 C2     2py        0.0000    0.0002    0.0003   -0.0001    0.0001    0.0000   -0.0429    0.0149   -0.0722   -0.0001
    21 C2     *py       -0.0000    0.0000    0.0014   -0.0008   -0.0007   -0.0003    0.0143   -0.0096    0.0370   -0.0162
    22 C2     2pz       -0.0000   -0.0001    0.0000    0.0002    0.0001    0.0000    0.0101   -0.0009   -0.0143   -0.0100
    23 C2     *pz       -0.0001   -0.0003   -0.0003   -0.0002   -0.0006   -0.0001    0.0005   -0.0002    0.0040    0.0101
    24 C2     *d2-      -0.0000    0.0001    0.0000    0.0001   -0.0000    0.0001    0.0020   -0.0007    0.0057   -0.0009
    25 C2     *d1-       0.0000    0.0000   -0.0001   -0.0000    0.0001    0.0000   -0.0022    0.0008    0.0015    0.0006
    26 C2     *d0       -0.0000    0.0000   -0.0001   -0.0001    0.0000   -0.0001   -0.0040    0.0010   -0.0048    0.0013
    27 C2     *d1+       0.0000    0.0001   -0.0000   -0.0000   -0.0001    0.0000   -0.0020    0.0005    0.0006    0.0003
    28 C2     *d2+       0.0000    0.0001   -0.0001   -0.0002   -0.0001    0.0001   -0.0060    0.0016   -0.0061    0.0013
    29 H3     1s        -0.0000    0.0001    0.0004   -0.0002   -0.0000   -0.0002    0.0192   -0.0048    0.1206   -0.2613
    30 H3     *s         0.0003   -0.0001   -0.0001   -0.0010    0.0004   -0.0001   -0.0095    0.0096   -0.0525    0.1142
    31 H3     *px        0.0000    0.0000    0.0000    0.0002   -0.0000    0.0001    0.0009   -0.0002    0.0032   -0.0086
    32 H3     *py       -0.0000    0.0001    0.0000   -0.0002    0.0000    0.0000   -0.0017   -0.0000   -0.0066    0.0103
    33 H3     *pz       -0.0000   -0.0000   -0.0000   -0.0003    0.0000    0.0000   -0.0010    0.0006   -0.0085    0.0163
    34 H4     1s         0.0000   -0.0000    0.0004   -0.0001   -0.0002   -0.0000    0.0218   -0.0092    0.1202   -0.2642
    35 H4     *s        -0.0001    0.0001   -0.0002   -0.0011   -0.0001    0.0004   -0.0106    0.0032   -0.0551    0.1132
    36 H4     *px        0.0000    0.0000    0.0000   -0.0005   -0.0000    0.0000   -0.0024    0.0008   -0.0108    0.0209
    37 H4     *py        0.0000    0.0001    0.0001    0.0000    0.0000   -0.0000   -0.0008    0.0005   -0.0017    0.0005
    38 H4     *pz        0.0000   -0.0000    0.0000   -0.0000    0.0001    0.0000    0.0006   -0.0003   -0.0009    0.0005
    39 O1     1s        -0.0083    1.0007    0.0001    0.0000   -0.0001   -0.0000   -0.0073    0.0010    0.0019   -0.0000
    40 O1     2s        -0.0003    0.0033   -0.0001    0.0002   -0.0003   -0.0002    0.8061   -0.1782   -0.3690   -0.0152
    41 O1     *s         0.0004   -0.0060   -0.0012   -0.0000    0.0004    0.0000   -0.0111    0.0058   -0.0325   -0.0020
    42 O1     2px        0.0001   -0.0007    0.0002   -0.0000    0.0000    0.0001   -0.0452    0.0144   -0.0311   -0.0146
    43 O1     *px       -0.0003    0.0012   -0.0001   -0.0000    0.0001   -0.0002    0.0073   -0.0026    0.0018    0.0078
    44 O1     2py       -0.0001    0.0008   -0.0002    0.0001    0.0000   -0.0000    0.0556   -0.0155    0.0329   -0.0259
    45 O1     *py        0.0002   -0.0014    0.0001   -0.0002   -0.0001    0.0000   -0.0075    0.0005   -0.0036    0.0137
    46 O1     2pz       -0.0001   -0.0013    0.0003   -0.0000    0.0001    0.0000   -0.0931    0.0481   -0.0552   -0.0117
    47 O1     *pz        0.0001    0.0024   -0.0002   -0.0000   -0.0004   -0.0000    0.0126   -0.0123    0.0058    0.0028
    48 O1     *d2-      -0.0000    0.0000   -0.0001   -0.0000   -0.0000    0.0000   -0.0037    0.0007   -0.0013    0.0001
    49 O1     *d1-       0.0000    0.0001   -0.0002    0.0000    0.0000   -0.0000   -0.0069    0.0029   -0.0023    0.0016
    50 O1     *d0        0.0000   -0.0001    0.0001    0.0000    0.0001   -0.0000    0.0059   -0.0010    0.0013    0.0014
    51 O1     *d1+      -0.0000   -0.0001    0.0002   -0.0000   -0.0000    0.0000    0.0064   -0.0024    0.0018    0.0012
    52 O1     *d2+      -0.0000    0.0000   -0.0000    0.0000   -0.0000    0.0000   -0.0006    0.0001   -0.0002    0.0019
    53 O2     1s         1.0002    0.0082    0.0001   -0.0000   -0.0000    0.0000   -0.0003   -0.0039   -0.0001   -0.0004
    54 O2     2s         0.0010   -0.0002    0.0002   -0.0000   -0.0001    0.0000    0.1977    0.9116    0.0543    0.0100
    55 O2     *s        -0.0014    0.0003   -0.0003    0.0001    0.0001   -0.0001   -0.0147   -0.0212    0.0031    0.0027
    56 O2     2px        0.0013   -0.0000   -0.0000    0.0000   -0.0000    0.0000    0.0191    0.0618   -0.0065   -0.0012
    57 O2     *px       -0.0012    0.0001   -0.0001   -0.0000    0.0001   -0.0000   -0.0079   -0.0216    0.0008    0.0002
    58 O2     2py       -0.0009    0.0001    0.0000    0.0000    0.0000    0.0000   -0.0132   -0.0396    0.0054   -0.0004
    59 O2     *py        0.0008   -0.0001    0.0000    0.0000   -0.0001   -0.0000    0.0058    0.0154   -0.0005    0.0004
    60 O2     2pz        0.0001    0.0002   -0.0001   -0.0000    0.0000    0.0000   -0.0037    0.0093    0.0010    0.0005
    61 O2     *pz        0.0001   -0.0001    0.0002   -0.0000   -0.0001   -0.0000    0.0033   -0.0002    0.0011   -0.0027
    62 O2     *d2-      -0.0000   -0.0000    0.0000    0.0000   -0.0000    0.0000   -0.0009   -0.0038    0.0002   -0.0001
    63 O2     *d1-      -0.0000    0.0000   -0.0000    0.0000    0.0000    0.0000    0.0003   -0.0006   -0.0004    0.0001
    64 O2     *d0       -0.0000    0.0000   -0.0000    0.0000    0.0000   -0.0000   -0.0000   -0.0024   -0.0001   -0.0000
    65 O2     *d1+       0.0000   -0.0000    0.0000    0.0000   -0.0000    0.0000   -0.0002    0.0007    0.0004    0.0001
    66 O2     *d2+       0.0000    0.0000   -0.0000   -0.0000    0.0000   -0.0000    0.0003    0.0016    0.0001    0.0001
    67 H7     1s         0.0005   -0.0002    0.0002    0.0000   -0.0000    0.0000    0.0690    0.2528   -0.0019    0.0009
    68 H7     *s         0.0004    0.0001   -0.0000   -0.0000    0.0000    0.0000   -0.0250   -0.1142   -0.0035    0.0001
    69 H7     *px        0.0002    0.0000   -0.0000    0.0000    0.0000    0.0000   -0.0065   -0.0263   -0.0008   -0.0002
    70 H7     *py       -0.0001   -0.0000    0.0000    0.0000   -0.0000    0.0000    0.0038    0.0186    0.0009    0.0001
    71 H7     *pz        0.0000   -0.0000   -0.0001   -0.0000   -0.0000    0.0000   -0.0026   -0.0000    0.0011    0.0002
    72 C8     1s        -0.0001   -0.0001   -0.0045    0.0104    1.0019    0.0047   -0.0024    0.0009   -0.0111   -0.0099
    73 C8     2s        -0.0002   -0.0003    0.0002    0.0008    0.0105   -0.0006    0.0932   -0.0435    0.3491    0.3145
    74 C8     *s         0.0009   -0.0004   -0.0035   -0.0016   -0.0123    0.0014   -0.0382    0.0249   -0.1308   -0.0931
    75 C8     2px       -0.0000    0.0000    0.0002    0.0000    0.0000    0.0002   -0.0125    0.0053   -0.0402   -0.0260
    76 C8     *px       -0.0001   -0.0000    0.0005   -0.0000    0.0004   -0.0009    0.0053   -0.0030    0.0183    0.0139
    77 C8     2py        0.0000   -0.0001   -0.0002    0.0001   -0.0001   -0.0000    0.0178   -0.0075    0.0528   -0.0272
    78 C8     *py        0.0001    0.0001   -0.0006   -0.0009   -0.0006    0.0002   -0.0072    0.0036   -0.0245    0.0102
    79 C8     2pz        0.0000   -0.0002   -0.0002    0.0000   -0.0002   -0.0000    0.0441   -0.0176    0.0441    0.0044
    80 C8     *pz        0.0004   -0.0002   -0.0011   -0.0002   -0.0005    0.0002   -0.0136    0.0092   -0.0249   -0.0088
    81 C8     *d2-      -0.0000   -0.0001    0.0000   -0.0000    0.0001   -0.0000   -0.0010    0.0005   -0.0046   -0.0005
    82 C8     *d1-       0.0000   -0.0001    0.0001   -0.0001   -0.0002    0.0000    0.0058   -0.0020    0.0067   -0.0008
    83 C8     *d0        0.0000    0.0000    0.0001    0.0001   -0.0001   -0.0001    0.0032   -0.0006    0.0013    0.0006
    84 C8     *d1+      -0.0000    0.0001   -0.0001    0.0000    0.0001   -0.0001   -0.0043    0.0015   -0.0051   -0.0025
    85 C8     *d2+      -0.0000   -0.0000    0.0000    0.0001    0.0000    0.0001   -0.0005    0.0002   -0.0013    0.0014
    86 H9     1s        -0.0001    0.0000    0.0004    0.0000    0.0002   -0.0002    0.0240   -0.0125    0.1138    0.1559
    87 H9     *s         0.0000   -0.0001   -0.0002   -0.0004    0.0011   -0.0001   -0.0105    0.0055   -0.0519   -0.0698
    88 H9     *px       -0.0000    0.0000    0.0000    0.0000   -0.0002    0.0001    0.0008   -0.0003    0.0017    0.0034
    89 H9     *py        0.0000   -0.0000   -0.0000    0.0000   -0.0004   -0.0000    0.0024   -0.0011    0.0103    0.0105
    90 H9     *pz       -0.0000   -0.0001   -0.0000   -0.0000    0.0001   -0.0000    0.0011   -0.0003   -0.0002   -0.0022
    91 H10    1s        -0.0001    0.0000    0.0004    0.0002    0.0001   -0.0000    0.0240   -0.0125    0.1141    0.1130
    92 H10    *s         0.0001   -0.0001   -0.0002    0.0001    0.0011    0.0004   -0.0105    0.0058   -0.0519   -0.0461
    93 H10    *px        0.0000    0.0000    0.0000    0.0000    0.0005    0.0000   -0.0025    0.0011   -0.0104   -0.0102
    94 H10    *py        0.0000   -0.0000   -0.0000    0.0001    0.0001    0.0000   -0.0001    0.0001    0.0005   -0.0006
    95 H10    *pz       -0.0000   -0.0001   -0.0000    0.0000    0.0001    0.0000    0.0012   -0.0004    0.0003    0.0009
    96 H11    1s        -0.0000   -0.0001    0.0002    0.0002    0.0002   -0.0002    0.0192   -0.0089    0.1318    0.1279
    97 H11    *s         0.0001    0.0002   -0.0002    0.0001    0.0012   -0.0001   -0.0095    0.0053   -0.0628   -0.0559
    98 H11    *px        0.0000   -0.0000    0.0000    0.0000   -0.0002    0.0001    0.0007   -0.0003    0.0036    0.0027
    99 H11    *py       -0.0000    0.0000   -0.0000    0.0001    0.0002    0.0000   -0.0007    0.0004   -0.0040   -0.0045
   100 H11    *pz       -0.0000    0.0000   -0.0001   -0.0000   -0.0004    0.0000    0.0022   -0.0011    0.0095    0.0093
   101 C12    1s         0.0000   -0.0000   -0.0043    0.0034   -0.0051    1.0019   -0.0019    0.0006   -0.0113   -0.0097
   102 C12    2s         0.0001   -0.0002    0.0003    0.0006   -0.0007    0.0104    0.0815   -0.0290    0.3590    0.3135
   103 C12    *s        -0.0003   -0.0001   -0.0036   -0.0013    0.0015   -0.0123   -0.0327    0.0090   -0.1391   -0.0987
   104 C12    2px       -0.0000   -0.0002   -0.0003    0.0001   -0.0001   -0.0001    0.0440   -0.0148    0.0765    0.0031
   105 C12    *px        0.0000    0.0000   -0.0014   -0.0005    0.0006   -0.0009   -0.0155    0.0092   -0.0389   -0.0113
   106 C12    2py       -0.0000    0.0000   -0.0001    0.0001    0.0001   -0.0000   -0.0014    0.0015    0.0153   -0.0349
   107 C12    *py       -0.0001    0.0003   -0.0000   -0.0007   -0.0004   -0.0001   -0.0005   -0.0046   -0.0084    0.0167
   108 C12    2pz       -0.0000   -0.0000    0.0000   -0.0000    0.0001   -0.0002    0.0080   -0.0001   -0.0188   -0.0122
   109 C12    *pz       -0.0001   -0.0004   -0.0002    0.0002   -0.0006    0.0003    0.0012   -0.0008    0.0059    0.0028
   110 C12    *d2-      -0.0000    0.0001   -0.0000   -0.0001   -0.0001   -0.0000   -0.0005   -0.0001    0.0025   -0.0027
   111 C12    *d1-       0.0000   -0.0001    0.0000    0.0000    0.0001   -0.0000    0.0015   -0.0003   -0.0004   -0.0002
   112 C12    *d0       -0.0000    0.0000   -0.0001    0.0001    0.0000    0.0001   -0.0042    0.0012   -0.0046   -0.0009
   113 C12    *d1+      -0.0000   -0.0001    0.0000    0.0000   -0.0001   -0.0000    0.0019   -0.0006   -0.0025   -0.0014
   114 C12    *d2+      -0.0000   -0.0000    0.0001    0.0000    0.0000   -0.0002    0.0063   -0.0017    0.0079    0.0011
   115 H13    1s         0.0000   -0.0000    0.0004    0.0000   -0.0002    0.0001    0.0215   -0.0091    0.1173    0.1539
   116 H13    *s        -0.0001    0.0001   -0.0002   -0.0004   -0.0001    0.0011   -0.0103    0.0034   -0.0537   -0.0692
   117 H13    *px        0.0000   -0.0001   -0.0001    0.0000   -0.0000   -0.0001    0.0014   -0.0006    0.0039    0.0015
   118 H13    *py        0.0000   -0.0000    0.0000    0.0000    0.0000   -0.0005    0.0022   -0.0007    0.0099    0.0109
   119 H13    *pz        0.0000   -0.0000    0.0000   -0.0000    0.0001    0.0000    0.0004   -0.0002   -0.0014   -0.0014
   120 H14    1s         0.0001   -0.0000    0.0002    0.0002   -0.0002    0.0002    0.0162   -0.0063    0.1355    0.1288
   121 H14    *s        -0.0000    0.0001   -0.0003    0.0001   -0.0001    0.0012   -0.0077    0.0040   -0.0633   -0.0565
   122 H14    *px        0.0000    0.0001   -0.0001    0.0000   -0.0000   -0.0001    0.0013   -0.0005    0.0042    0.0043
   123 H14    *py       -0.0000   -0.0000   -0.0000    0.0001    0.0000    0.0002   -0.0005    0.0003   -0.0041   -0.0048
   124 H14    *pz        0.0000    0.0000   -0.0000   -0.0000    0.0001   -0.0004    0.0013   -0.0003    0.0097    0.0086
   125 H15    1s        -0.0000    0.0001    0.0004    0.0002   -0.0000    0.0002    0.0193   -0.0042    0.1174    0.1115
   126 H15    *s         0.0002   -0.0000   -0.0001    0.0001    0.0004    0.0010   -0.0100    0.0090   -0.0509   -0.0465
   127 H15    *px       -0.0000   -0.0001   -0.0000    0.0000   -0.0000   -0.0001    0.0015    0.0002    0.0052    0.0047
   128 H15    *py       -0.0000   -0.0000   -0.0000    0.0001    0.0000    0.0002   -0.0012    0.0003   -0.0047   -0.0054
   129 H15    *pz       -0.0000   -0.0000   -0.0000   -0.0000    0.0000    0.0003   -0.0010    0.0007   -0.0084   -0.0072
   130 H16    1s         0.0001   -0.0000    0.0002   -0.0002   -0.0002   -0.0002    0.0164   -0.0061    0.1383   -0.2511
   131 H16    *s        -0.0000    0.0001   -0.0003   -0.0012   -0.0001   -0.0001   -0.0076    0.0042   -0.0644    0.1094
   132 H16    *px        0.0000   -0.0000    0.0000    0.0002   -0.0000    0.0001    0.0002   -0.0001    0.0036   -0.0064
   133 H16    *py       -0.0000   -0.0001    0.0001   -0.0001    0.0000    0.0000   -0.0013    0.0005   -0.0047    0.0090
   134 H16    *pz        0.0000    0.0000   -0.0000    0.0004    0.0001   -0.0000    0.0014   -0.0003    0.0099   -0.0178
 
 
      Orbital                11        12        13        14        15        16        17        18        19        20
      Energy            -0.9431   -0.7549   -0.6423   -0.6127   -0.6092   -0.5850   -0.5499   -0.5483   -0.5194   -0.5181
      Occ. No.           2.0000    2.0000    2.0000    2.0000    2.0000    2.0000    2.0000    2.0000    2.0000    2.0000
 
     1 C1     1s        -0.0001   -0.0005    0.0028   -0.0000    0.0001   -0.0014   -0.0001    0.0001    0.0014    0.0041
     2 C1     2s        -0.0112   -0.5503   -0.1018   -0.0017    0.0041   -0.0612    0.0063    0.0036   -0.0238   -0.0652
     3 C1     *s         0.0019    0.1069   -0.0349   -0.0005    0.0025   -0.0053    0.0011    0.0017   -0.0221   -0.0633
     4 C1     2px        0.2113   -0.0315    0.1264    0.2997   -0.1717    0.0206    0.0294   -0.0944    0.0484    0.1362
     5 C1     *px       -0.0113    0.0237   -0.0279   -0.0238    0.0175   -0.0080   -0.0054    0.0009   -0.0143   -0.0498
     6 C1     2py       -0.0645    0.0337   -0.1577    0.2114    0.2679   -0.0378   -0.0729   -0.0415   -0.0677   -0.1520
     7 C1     *py        0.0081   -0.0328    0.0410   -0.0181   -0.0262    0.0241    0.0070   -0.0048    0.0247    0.0557
     8 C1     2pz       -0.1255   -0.0546    0.2849   -0.0181    0.1842   -0.1102   -0.0668    0.0325    0.0857    0.2803
     9 C1     *pz        0.0076    0.0346   -0.0332    0.0016   -0.0130    0.0344    0.0040   -0.0036   -0.0270   -0.0855
    10 C1     *d2-      -0.0089    0.0033   -0.0054   -0.0004   -0.0056   -0.0046   -0.0218    0.0041   -0.0053   -0.0148
    11 C1     *d1-       0.0125    0.0062   -0.0085   -0.0036   -0.0004   -0.0050   -0.0016   -0.0153   -0.0087   -0.0279
    12 C1     *d0        0.0130   -0.0044    0.0055    0.0003   -0.0015    0.0068   -0.0108    0.0034    0.0091    0.0249
    13 C1     *d1+      -0.0082   -0.0055    0.0074   -0.0046    0.0000    0.0021   -0.0060   -0.0185    0.0086    0.0245
    14 C1     *d2+      -0.0156    0.0007   -0.0009    0.0041   -0.0011   -0.0004   -0.0039    0.0056   -0.0006   -0.0020
    15 C2     1s        -0.0002   -0.0091   -0.0006    0.0031    0.0020    0.0001   -0.0006   -0.0009    0.0000   -0.0001
    16 C2     2s         0.0039    0.1804    0.0470   -0.0475   -0.0286   -0.0152   -0.0084   -0.0127   -0.0081   -0.0236
    17 C2     *s        -0.0035   -0.0124   -0.0060   -0.0152   -0.0094   -0.0244    0.0017    0.0087   -0.0006    0.0023
    18 C2     2px        0.0353    0.0607    0.1442    0.1488   -0.3110   -0.0386   -0.2453   -0.0548   -0.3147    0.0285
    19 C2     *px       -0.0153   -0.0238   -0.0282   -0.0344    0.0618    0.0163    0.0313    0.0105    0.0441    0.0012
    20 C2     2py       -0.0105    0.2226    0.1277   -0.3063   -0.0705    0.0531    0.1178    0.0605    0.1732    0.1361
    21 C2     *py        0.0068   -0.0625   -0.0264    0.0637    0.0139   -0.0213   -0.0175   -0.0177   -0.0219   -0.0234
    22 C2     2pz       -0.0210   -0.0255    0.1965   -0.0262    0.1904   -0.2000   -0.2260   -0.3597    0.1272   -0.2376
    23 C2     *pz        0.0100    0.0058   -0.0546   -0.0034   -0.0449    0.0322    0.0371    0.0500   -0.0136    0.0405
    24 C2     *d2-      -0.0028   -0.0072   -0.0071    0.0047    0.0062   -0.0018   -0.0047    0.0007   -0.0063   -0.0068
    25 C2     *d1-       0.0017    0.0011    0.0010   -0.0011    0.0015   -0.0031   -0.0044   -0.0116    0.0034   -0.0140
    26 C2     *d0       -0.0003    0.0091   -0.0002   -0.0126    0.0008    0.0043    0.0101    0.0067    0.0119    0.0066
    27 C2     *d1+       0.0010    0.0018   -0.0066    0.0007   -0.0063    0.0060    0.0053    0.0078   -0.0053    0.0048
    28 C2     *d2+      -0.0016    0.0120    0.0070   -0.0061   -0.0094   -0.0012   -0.0065    0.0009   -0.0087    0.0016
    29 H3     1s        -0.0223    0.1559    0.1794   -0.2503    0.2033   -0.1098   -0.0216   -0.2326    0.3150   -0.1481
    30 H3     *s         0.0120   -0.0596   -0.0432    0.0807   -0.0615    0.0632    0.0064    0.0690   -0.0880    0.0326
    31 H3     *px       -0.0004    0.0050    0.0070   -0.0023   -0.0012   -0.0032   -0.0057   -0.0058    0.0003   -0.0023
    32 H3     *py       -0.0010   -0.0016   -0.0046    0.0022   -0.0064    0.0030    0.0028    0.0079   -0.0051    0.0067
    33 H3     *pz        0.0012   -0.0093   -0.0041    0.0118   -0.0057    0.0013   -0.0032    0.0024   -0.0113    0.0011
    34 H4     1s         0.0258    0.1563    0.1744    0.1051   -0.3155   -0.0536   -0.2580   -0.0718   -0.3274    0.0082
    35 H4     *s        -0.0147   -0.0473   -0.0586   -0.0322    0.0957    0.0096    0.0735    0.0221    0.0814   -0.0096
    36 H4     *px       -0.0007   -0.0101   -0.0075   -0.0023    0.0126    0.0019    0.0087    0.0029    0.0110   -0.0007
    37 H4     *py        0.0012    0.0030    0.0013   -0.0053   -0.0001    0.0022    0.0033    0.0011    0.0041    0.0027
    38 H4     *pz       -0.0008   -0.0012    0.0040   -0.0006    0.0051   -0.0041   -0.0044   -0.0070    0.0035   -0.0048
    39 O1     1s        -0.0001   -0.0004    0.0017    0.0001   -0.0004   -0.0013   -0.0003    0.0003   -0.0003   -0.0009
    40 O1     2s        -0.0219    0.2404   -0.1116   -0.0059    0.0305    0.1072   -0.0154   -0.0043   -0.0168   -0.0554
    41 O1     *s        -0.0022    0.0582   -0.0628   -0.0030    0.0145    0.0464   -0.0029   -0.0039   -0.0029   -0.0102
    42 O1     2px        0.0252    0.1588   -0.1621    0.0543   -0.0119    0.0411    0.0218   -0.0434   -0.0783   -0.2336
    43 O1     *px       -0.0130   -0.0004   -0.0028   -0.0188    0.0093   -0.0029   -0.0040    0.0114   -0.0049   -0.0127
    44 O1     2py       -0.0074   -0.1761    0.1735    0.0457    0.0261   -0.0612   -0.0426   -0.0105    0.0877    0.2647
    45 O1     *py        0.0027    0.0028    0.0021   -0.0138   -0.0145    0.0038    0.0093    0.0051    0.0044    0.0129
    46 O1     2pz       -0.0189    0.2820   -0.2949   -0.0097    0.0617    0.0299   -0.0211    0.0042   -0.1328   -0.3864
    47 O1     *pz        0.0058   -0.0069    0.0012    0.0020   -0.0107    0.0094    0.0048   -0.0027   -0.0075   -0.0237
    48 O1     *d2-       0.0011    0.0050   -0.0040    0.0007   -0.0025    0.0013    0.0003   -0.0007   -0.0017   -0.0050
    49 O1     *d1-       0.0001    0.0092   -0.0068   -0.0031   -0.0008    0.0021    0.0016    0.0000   -0.0031   -0.0090
    50 O1     *d0        0.0027   -0.0052    0.0031    0.0006   -0.0054   -0.0019    0.0028   -0.0006    0.0019    0.0050
    51 O1     *d1+      -0.0014   -0.0075    0.0053   -0.0036   -0.0001   -0.0026   -0.0009    0.0012    0.0024    0.0077
    52 O1     *d2+      -0.0008    0.0008   -0.0004   -0.0030   -0.0008    0.0007    0.0005    0.0019    0.0000   -0.0011
    53 O2     1s        -0.0006   -0.0001   -0.0008   -0.0000    0.0002   -0.0030   -0.0002    0.0004   -0.0001   -0.0000
    54 O2     2s         0.0152   -0.0608    0.0998   -0.0014    0.0060    0.1989   -0.0047   -0.0175   -0.0031   -0.0231
    55 O2     *s         0.0044   -0.0146    0.0467   -0.0005    0.0078    0.1131   -0.0041   -0.0104   -0.0019   -0.0154
    56 O2     2px        0.0036    0.0453   -0.2146    0.0057   -0.0805   -0.5497    0.0331    0.0401    0.0455    0.1610
    57 O2     *px       -0.0008   -0.0038    0.0104   -0.0013    0.0031    0.0141   -0.0008    0.0003    0.0006    0.0018
    58 O2     2py       -0.0023   -0.0327    0.1461   -0.0079    0.0552    0.3642   -0.0244   -0.0322   -0.0234   -0.1042
    59 O2     *py       -0.0000    0.0021   -0.0067   -0.0011   -0.0022   -0.0113    0.0006    0.0021   -0.0005    0.0004
    60 O2     2pz        0.0018    0.0009   -0.0344    0.0015   -0.0167   -0.0889    0.0028    0.0076    0.0112    0.0391
    61 O2     *pz       -0.0049   -0.0039    0.0055   -0.0002    0.0061   -0.0058   -0.0038    0.0017    0.0003    0.0016
    62 O2     *d2-      -0.0002   -0.0014    0.0056   -0.0002    0.0020    0.0130   -0.0010   -0.0010   -0.0008   -0.0035
    63 O2     *d1-       0.0000    0.0005   -0.0001    0.0000    0.0001    0.0019   -0.0000    0.0001   -0.0005   -0.0011
    64 O2     *d0       -0.0001   -0.0006    0.0034   -0.0001    0.0016    0.0084   -0.0006   -0.0006   -0.0006   -0.0023
    65 O2     *d1+      -0.0001   -0.0004   -0.0003    0.0001   -0.0002   -0.0024    0.0002    0.0006    0.0001    0.0013
    66 O2     *d2+       0.0000    0.0003   -0.0020    0.0001   -0.0008   -0.0056    0.0004    0.0005    0.0004    0.0019
    67 H7     1s         0.0056    0.0526   -0.2236    0.0080   -0.0810   -0.5316    0.0351    0.0415    0.0323    0.1334
    68 H7     *s        -0.0014   -0.0072    0.0613   -0.0040    0.0272    0.1774   -0.0101   -0.0137   -0.0169   -0.0616
    69 H7     *px       -0.0005   -0.0017    0.0118   -0.0004    0.0050    0.0302   -0.0021   -0.0024   -0.0023   -0.0089
    70 H7     *py        0.0003    0.0007   -0.0077    0.0004   -0.0036   -0.0221    0.0012    0.0015    0.0021    0.0077
    71 H7     *pz        0.0003   -0.0018    0.0014    0.0002   -0.0005   -0.0023    0.0000    0.0003    0.0013    0.0040
    72 C8     1s        -0.0170   -0.0086   -0.0011    0.0002   -0.0032   -0.0004    0.0008   -0.0002   -0.0000    0.0000
    73 C8     2s         0.5405    0.1736    0.0465   -0.0034    0.0543   -0.0156    0.0154   -0.0041   -0.0047   -0.0169
    74 C8     *s        -0.1599   -0.0313    0.0242   -0.0013    0.0116    0.0204    0.0024   -0.0021    0.0057    0.0124
    75 C8     2px        0.0237    0.0840    0.1590    0.3070    0.0907   -0.0825    0.2405    0.0936    0.2573   -0.1376
    76 C8     *px       -0.0079   -0.0226   -0.0412   -0.0641   -0.0129    0.0127   -0.0327   -0.0070   -0.0350    0.0185
    77 C8     2py        0.0057   -0.1150   -0.2050    0.2474   -0.0796    0.1235   -0.2041    0.1519    0.2576   -0.0323
    78 C8     *py       -0.0072    0.0320    0.0516   -0.0505    0.0097   -0.0187    0.0294   -0.0160   -0.0340    0.0042
    79 C8     2pz        0.0032   -0.1873    0.0536    0.0075   -0.2842   -0.0332    0.3893   -0.1023   -0.0858   -0.2213
    80 C8     *pz       -0.0136    0.0517   -0.0176   -0.0026    0.0650    0.0214   -0.0615    0.0146    0.0134    0.0337
    81 C8     *d2-       0.0001    0.0047    0.0095   -0.0016    0.0022   -0.0046    0.0053   -0.0027   -0.0032    0.0030
    82 C8     *d1-       0.0019   -0.0125   -0.0018    0.0055   -0.0116    0.0004    0.0098   -0.0035   -0.0006   -0.0084
    83 C8     *d0        0.0007   -0.0055   -0.0045   -0.0004   -0.0034    0.0051   -0.0139    0.0030    0.0046    0.0119
    84 C8     *d1+       0.0004    0.0095    0.0004    0.0048    0.0097   -0.0001   -0.0094    0.0008    0.0036    0.0065
    85 C8     *d2+      -0.0009    0.0015    0.0022    0.0086    0.0017   -0.0003    0.0029    0.0076    0.0158   -0.0045
    86 H9     1s         0.2194    0.1559    0.1742   -0.3131    0.0585   -0.1074    0.1687   -0.1850   -0.3493    0.0385
    87 H9     *s        -0.0931   -0.0494   -0.0575    0.0962   -0.0180    0.0302   -0.0503    0.0538    0.0876   -0.0179
    88 H9     *px        0.0053    0.0042    0.0056    0.0013    0.0022   -0.0030    0.0074   -0.0008    0.0003   -0.0020
    89 H9     *py        0.0174    0.0090    0.0059   -0.0126    0.0031   -0.0034    0.0045   -0.0064   -0.0128    0.0018
    90 H9     *pz       -0.0009   -0.0042    0.0013    0.0020   -0.0052   -0.0009    0.0070   -0.0018   -0.0001   -0.0044
    91 H10    1s         0.2448    0.1556    0.1653    0.3110    0.1064   -0.0853    0.2485    0.1018    0.2822   -0.1703
    92 H10    *s        -0.1067   -0.0495   -0.0538   -0.0949   -0.0324    0.0246   -0.0725   -0.0281   -0.0753    0.0353
    93 H10    *px       -0.0186   -0.0099   -0.0065   -0.0117   -0.0056    0.0033   -0.0084   -0.0035   -0.0101    0.0059
    94 H10    *py       -0.0016   -0.0023   -0.0043    0.0040   -0.0011    0.0024   -0.0049    0.0029    0.0043   -0.0003
    95 H10    *pz       -0.0013   -0.0035    0.0019   -0.0008   -0.0052   -0.0012    0.0076   -0.0016   -0.0022   -0.0040
    96 H11    1s         0.2204    0.1728   -0.1437   -0.0191    0.2220    0.0991   -0.5108    0.1179    0.0963    0.2584
    97 H11    *s        -0.0962   -0.0542    0.0360    0.0046   -0.0550   -0.0224    0.1316   -0.0306   -0.0205   -0.0531
    98 H11    *px        0.0064    0.0049    0.0002    0.0058    0.0055   -0.0000   -0.0038    0.0041    0.0068    0.0002
    99 H11    *py       -0.0063   -0.0057   -0.0007    0.0053   -0.0056    0.0007    0.0055    0.0010    0.0042   -0.0040
   100 H11    *pz        0.0158    0.0074   -0.0055   -0.0009    0.0067    0.0040   -0.0168    0.0036    0.0026    0.0071
   101 C12    1s         0.0163   -0.0092   -0.0005   -0.0035    0.0016   -0.0002   -0.0002    0.0013   -0.0001    0.0000
   102 C12    2s        -0.5346    0.1864    0.0434    0.0548   -0.0239   -0.0202   -0.0015    0.0209   -0.0092   -0.0206
   103 C12    *s         0.1639   -0.0168   -0.0025    0.0181   -0.0074   -0.0171   -0.0006   -0.0066    0.0008    0.0029
   104 C12    2px        0.0001   -0.2298   -0.1314   -0.2824    0.1044   -0.0433   -0.0366    0.1037   -0.0304   -0.1729
   105 C12    *px        0.0138    0.0641    0.0296    0.0591   -0.0204    0.0265    0.0032   -0.0274    0.0081    0.0243
   106 C12    2py       -0.0134   -0.0119   -0.1090    0.1598    0.3149    0.0439    0.1929   -0.1697   -0.2819    0.2149
   107 C12    *py        0.0044    0.0107    0.0200   -0.0359   -0.0641   -0.0242   -0.0220    0.0300    0.0346   -0.0329
   108 C12    2pz       -0.0181   -0.0143    0.2106    0.0215    0.1722   -0.1268   -0.0403    0.4460   -0.2308   -0.1151
   109 C12    *pz        0.0138    0.0021   -0.0582    0.0046   -0.0397    0.0249    0.0110   -0.0674    0.0334    0.0236
   110 C12    *d2-      -0.0019   -0.0015   -0.0033   -0.0017    0.0019   -0.0027   -0.0065    0.0031    0.0032   -0.0098
   111 C12    *d1-      -0.0003   -0.0014    0.0067    0.0007    0.0066   -0.0039   -0.0002    0.0119   -0.0098   -0.0018
   112 C12    *d0        0.0013    0.0093   -0.0011    0.0120    0.0021    0.0037    0.0058   -0.0109   -0.0052    0.0119
   113 C12    *d1+      -0.0012    0.0002    0.0010    0.0007   -0.0005    0.0003   -0.0008   -0.0108    0.0084    0.0104
   114 C12    *d2+      -0.0014   -0.0139   -0.0088   -0.0094    0.0094    0.0009    0.0033   -0.0020   -0.0064    0.0005
   115 H13    1s        -0.2161    0.1585    0.1705   -0.0477   -0.3213   -0.0545   -0.1839    0.1851    0.2684   -0.1990
   116 H13    *s         0.0909   -0.0488   -0.0575    0.0153    0.0988    0.0103    0.0528   -0.0538   -0.0732    0.0445
   117 H13    *px       -0.0048   -0.0008    0.0008   -0.0050   -0.0031   -0.0028   -0.0036    0.0047    0.0030   -0.0058
   118 H13    *py       -0.0171    0.0106    0.0076    0.0011   -0.0120   -0.0013   -0.0053    0.0062    0.0087   -0.0053
   119 H13    *pz        0.0008   -0.0016    0.0038    0.0004    0.0056   -0.0027   -0.0003    0.0083   -0.0060   -0.0011
   120 H14    1s        -0.2166    0.1781   -0.1383    0.1802   -0.0828    0.1400    0.1221   -0.4946    0.1146    0.2743
   121 H14    *s         0.0948   -0.0601    0.0377   -0.0456    0.0219   -0.0294   -0.0327    0.1272   -0.0231   -0.0542
   122 H14    *px       -0.0072    0.0015   -0.0049   -0.0002   -0.0003    0.0024    0.0019   -0.0090    0.0023    0.0036
   123 H14    *py        0.0062   -0.0048    0.0011   -0.0006    0.0081   -0.0016    0.0017    0.0063   -0.0080    0.0002
   124 H14    *pz       -0.0155    0.0098   -0.0023    0.0094   -0.0007    0.0044    0.0049   -0.0134   -0.0003    0.0083
   125 H15    1s        -0.2372    0.1565    0.1742    0.2250    0.2286   -0.0573    0.0810    0.2278   -0.3286    0.0702
   126 H15    *s         0.1048   -0.0612   -0.0390   -0.0740   -0.0696    0.0556   -0.0262   -0.0745    0.0891   -0.0303
   127 H15    *px       -0.0059    0.0000    0.0030    0.0003    0.0060   -0.0005    0.0012    0.0066   -0.0070   -0.0022
   128 H15    *py        0.0096   -0.0054   -0.0078   -0.0033   -0.0006    0.0023    0.0019   -0.0097    0.0033    0.0021
   129 H15    *pz        0.0149   -0.0094   -0.0035   -0.0109   -0.0074    0.0010   -0.0039   -0.0010    0.0098   -0.0061
   130 H16    1s         0.0037    0.1757   -0.1277   -0.1793   -0.1119    0.2072    0.3271    0.3616    0.0694    0.2818
   131 H16    *s        -0.0015   -0.0591    0.0345    0.0453    0.0293   -0.0518   -0.0870   -0.0949   -0.0123   -0.0551
   132 H16    *px        0.0010    0.0047    0.0001    0.0001   -0.0081    0.0024    0.0002    0.0048   -0.0062    0.0039
   133 H16    *py       -0.0004   -0.0019    0.0048   -0.0005    0.0021   -0.0041   -0.0053   -0.0076    0.0017   -0.0048
   134 H16    *pz       -0.0003    0.0096   -0.0021   -0.0095   -0.0018    0.0060    0.0106    0.0091    0.0054    0.0063
 
 
      Orbital                21        22        23        24        25        26
      Energy            -0.4875   -0.4864   -0.3538    0.0000    0.0002    0.0051
      Occ. No.           2.0000    2.0000    1.5458    1.6651    1.4540    1.3351
 
     1 C1     1s        -0.0001   -0.0003    0.0002   -0.0001   -0.0001    0.0012
     2 C1     2s        -0.0027   -0.0005   -0.0015    0.0023    0.0046    0.0072
     3 C1     *s        -0.0001    0.0089   -0.0087    0.0010    0.0063    0.0066
     4 C1     2px        0.3812    0.2392   -0.0501   -0.0370   -0.0462    0.0263
     5 C1     *px       -0.0583   -0.0377   -0.0110    0.0033    0.0373   -0.0036
     6 C1     2py        0.3058   -0.3028   -0.0434    0.0433   -0.0439   -0.0313
     7 C1     *py       -0.0474    0.0455   -0.0049   -0.0010    0.0228   -0.0029
     8 C1     2pz       -0.0098   -0.2811   -0.0028    0.0489    0.0073   -0.0559
     9 C1     *pz        0.0028    0.0349    0.0030   -0.0058   -0.0050   -0.0073
    10 C1     *d2-       0.0077   -0.0208   -0.0038   -0.0054   -0.0038    0.0083
    11 C1     *d1-       0.0026    0.0203    0.0107   -0.0103    0.0112    0.0106
    12 C1     *d0       -0.0002    0.0149    0.0004   -0.0214   -0.0001    0.0197
    13 C1     *d1+       0.0061   -0.0148    0.0106    0.0081    0.0136   -0.0086
    14 C1     *d2+      -0.0325   -0.0056    0.0202    0.0001    0.0197    0.0005
    15 C2     1s         0.0002   -0.0004   -0.0001    0.0011    0.0012    0.0004
    16 C2     2s         0.0833   -0.0414   -0.0653    0.0359   -0.0446   -0.0174
    17 C2     *s         0.0240   -0.0079   -0.0151   -0.0034   -0.0266   -0.0044
    18 C2     2px       -0.2994   -0.0840    0.0096   -0.0160    0.0026    0.0081
    19 C2     *px        0.0321    0.0046    0.0042   -0.0040   -0.0100    0.0047
    20 C2     2py       -0.3064    0.2442    0.0815   -0.0366    0.0918    0.0399
    21 C2     *py        0.0374   -0.0228   -0.0309    0.0101    0.0153    0.0000
    22 C2     2pz       -0.0482    0.1900   -0.0393    0.0243   -0.0067    0.0003
    23 C2     *pz        0.0037   -0.0143    0.0177   -0.0129    0.0084   -0.0006
    24 C2     *d2-       0.0019   -0.0138    0.0003    0.0014   -0.0002   -0.0013
    25 C2     *d1-      -0.0013    0.0153   -0.0008   -0.0007    0.0007    0.0020
    26 C2     *d0       -0.0006    0.0087    0.0021   -0.0023    0.0027    0.0007
    27 C2     *d1+       0.0018   -0.0055    0.0020   -0.0006    0.0014    0.0010
    28 C2     *d2+      -0.0228   -0.0043    0.0014    0.0007    0.0029    0.0005
    29 H3     1s        -0.0465    0.3309   -0.0218    0.0090    0.0118    0.0162
    30 H3     *s         0.0105   -0.0732    0.0346   -0.0178   -0.0286    0.0064
    31 H3     *px       -0.0072    0.0029   -0.0003    0.0007   -0.0001    0.0007
    32 H3     *py       -0.0042   -0.0049    0.0006    0.0011    0.0025    0.0001
    33 H3     *pz        0.0015   -0.0083    0.0010   -0.0021   -0.0015   -0.0015
    34 H4     1s        -0.3243   -0.1038   -0.0141    0.0075   -0.0080   -0.0078
    35 H4     *s         0.0596    0.0194    0.0267    0.0038    0.0240   -0.0047
    36 H4     *px        0.0101    0.0022    0.0003   -0.0005    0.0006    0.0007
    37 H4     *py       -0.0033    0.0060   -0.0000   -0.0015   -0.0010    0.0010
    38 H4     *pz       -0.0001    0.0041   -0.0005    0.0012    0.0010    0.0002
    39 O1     1s         0.0000    0.0004   -0.0007    0.0011   -0.0002    0.0003
    40 O1     2s        -0.0006   -0.0053   -0.0050    0.0371   -0.0076    0.0570
    41 O1     *s        -0.0007   -0.0036    0.0048    0.0033   -0.0027    0.0168
    42 O1     2px        0.0565    0.0533    0.5006    0.3280    0.5142   -0.3443
    43 O1     *px       -0.0123   -0.0065    0.0295    0.0133    0.0211   -0.0205
    44 O1     2py        0.0507   -0.0654    0.4300   -0.3818    0.4522    0.4025
    45 O1     *py       -0.0099    0.0082    0.0267   -0.0183    0.0176    0.0251
    46 O1     2pz       -0.0062   -0.0268   -0.0022   -0.4064   -0.0110    0.4854
    47 O1     *pz        0.0010    0.0082   -0.0015   -0.0214    0.0035    0.0237
    48 O1     *d2-       0.0009    0.0032    0.0011    0.0048    0.0010   -0.0042
    49 O1     *d1-      -0.0035    0.0021   -0.0037   -0.0006   -0.0054   -0.0024
    50 O1     *d0        0.0002    0.0069   -0.0004    0.0062    0.0003   -0.0084
    51 O1     *d1+      -0.0039   -0.0014   -0.0044    0.0000   -0.0057    0.0024
    52 O1     *d2+      -0.0051    0.0006   -0.0061    0.0010   -0.0048   -0.0009
    53 O2     1s        -0.0001   -0.0004    0.0001    0.0008    0.0007   -0.0001
    54 O2     2s         0.0017   -0.0226   -0.0029    0.0418    0.0045   -0.0428
    55 O2     *s         0.0021   -0.0093   -0.0018   -0.0015   -0.0043   -0.0124
    56 O2     2px       -0.0053    0.0443    0.3614    0.0299   -0.4019   -0.0390
    57 O2     *px       -0.0003   -0.0002    0.0163    0.0045   -0.0173   -0.0038
    58 O2     2py        0.0010   -0.0302    0.5442    0.1275   -0.5469    0.1888
    59 O2     *py       -0.0012   -0.0007    0.0262    0.0006   -0.0202    0.0104
    60 O2     2pz       -0.0003   -0.0043   -0.1256    0.6366    0.1256    0.6964
    61 O2     *pz        0.0001   -0.0049   -0.0063    0.0208    0.0053    0.0328
    62 O2     *d2-       0.0001   -0.0013    0.0033    0.0009   -0.0030    0.0033
    63 O2     *d1-      -0.0000   -0.0002    0.0008   -0.0050   -0.0019   -0.0032
    64 O2     *d0        0.0001   -0.0008   -0.0000   -0.0001    0.0006    0.0035
    65 O2     *d1+      -0.0001    0.0003   -0.0018    0.0075    0.0003    0.0060
    66 O2     *d2+      -0.0000    0.0005    0.0083    0.0014   -0.0075    0.0001
    67 H7     1s        -0.0045    0.0462   -0.0023   -0.0030   -0.0035   -0.0601
    68 H7     *s        -0.0004   -0.0097    0.0051    0.0313    0.0049    0.0503
    69 H7     *px        0.0002   -0.0021    0.0115   -0.0007   -0.0077    0.0051
    70 H7     *py       -0.0003    0.0013    0.0143    0.0039   -0.0127   -0.0005
    71 H7     *pz        0.0002   -0.0005   -0.0044    0.0157    0.0022    0.0131
    72 C8     1s        -0.0000    0.0000   -0.0000    0.0009    0.0001    0.0000
    73 C8     2s        -0.0011    0.0975    0.0031   -0.0688    0.0032    0.0788
    74 C8     *s         0.0003    0.0261    0.0038   -0.0221   -0.0037    0.0160
    75 C8     2px       -0.2043   -0.2599   -0.0142    0.0200   -0.0145   -0.0209
    76 C8     *px        0.0189    0.0298   -0.0051    0.0008   -0.0091   -0.0013
    77 C8     2py       -0.1677    0.3210   -0.0088   -0.0314   -0.0104    0.0328
    78 C8     *py        0.0161   -0.0364   -0.0037   -0.0015   -0.0073    0.0021
    79 C8     2pz        0.0036    0.2280    0.0059   -0.0996    0.0034    0.1046
    80 C8     *pz       -0.0004   -0.0320    0.0009    0.0168   -0.0032   -0.0226
    81 C8     *d2-       0.0052   -0.0099   -0.0002   -0.0011   -0.0005    0.0009
    82 C8     *d1-       0.0035    0.0102   -0.0002   -0.0039   -0.0007    0.0047
    83 C8     *d0       -0.0004    0.0144    0.0000   -0.0001    0.0001   -0.0011
    84 C8     *d1+       0.0059   -0.0066   -0.0008    0.0030   -0.0013   -0.0038
    85 C8     *d2+      -0.0221   -0.0033    0.0010    0.0000    0.0021   -0.0002
    86 H9     1s         0.2578   -0.2025    0.0041   -0.0162    0.0057    0.0211
    87 H9     *s        -0.0477    0.0385   -0.0166    0.0182   -0.0212   -0.0189
    88 H9     *px       -0.0023   -0.0074    0.0002   -0.0000    0.0002    0.0000
    89 H9     *py        0.0086   -0.0042   -0.0004   -0.0010   -0.0001    0.0013
    90 H9     *pz        0.0006    0.0044   -0.0020   -0.0002   -0.0018    0.0004
    91 H10    1s        -0.2557   -0.2202   -0.0028   -0.0166   -0.0039    0.0217
    92 H10    *s         0.0469    0.0417    0.0151    0.0202    0.0190   -0.0215
    93 H10    *px        0.0078    0.0065   -0.0004    0.0009   -0.0000   -0.0012
    94 H10    *py       -0.0042    0.0062    0.0004   -0.0002    0.0002    0.0003
    95 H10    *pz       -0.0010    0.0039    0.0021   -0.0002    0.0018    0.0003
    96 H11    1s         0.0026    0.0498   -0.0036    0.0614   -0.0013   -0.0665
    97 H11    *s        -0.0005   -0.0235    0.0000    0.0030   -0.0008   -0.0104
    98 H11    *px       -0.0042   -0.0041   -0.0003    0.0019   -0.0003   -0.0018
    99 H11    *py       -0.0035    0.0051   -0.0000   -0.0023   -0.0001    0.0023
   100 H11    *pz        0.0002    0.0062    0.0000   -0.0005    0.0001    0.0007
   101 C12    1s        -0.0001   -0.0003    0.0000    0.0009   -0.0013    0.0007
   102 C12    2s        -0.0804   -0.0407    0.0565    0.0425    0.0455   -0.0191
   103 C12    *s        -0.0229   -0.0084    0.0099    0.0008    0.0332   -0.0110
   104 C12    2px       -0.3609   -0.2201    0.0800    0.0470    0.0838   -0.0491
   105 C12    *px        0.0440    0.0204   -0.0212   -0.0096    0.0072   -0.0035
   106 C12    2py       -0.2300    0.1539   -0.0122    0.0084   -0.0122    0.0029
   107 C12    *py        0.0235   -0.0101    0.0040    0.0064   -0.0069   -0.0023
   108 C12    2pz        0.0686    0.2157    0.0237    0.0274    0.0100    0.0045
   109 C12    *pz       -0.0074   -0.0176   -0.0168   -0.0130   -0.0068    0.0004
   110 C12    *d2-       0.0080   -0.0145   -0.0008    0.0015   -0.0011   -0.0009
   111 C12    *d1-       0.0008    0.0104    0.0018    0.0007    0.0014   -0.0004
   112 C12    *d0        0.0005    0.0098   -0.0022   -0.0030   -0.0026    0.0009
   113 C12    *d1+       0.0004   -0.0125   -0.0005    0.0003    0.0006   -0.0024
   114 C12    *d2+      -0.0217   -0.0032    0.0015    0.0003    0.0025   -0.0014
   115 H13    1s         0.3302   -0.1118    0.0142    0.0088    0.0046   -0.0077
   116 H13    *s        -0.0631    0.0222   -0.0284    0.0010   -0.0206   -0.0025
   117 H13    *px       -0.0009   -0.0064   -0.0004    0.0016   -0.0008   -0.0010
   118 H13    *py        0.0108   -0.0010    0.0003    0.0002    0.0007   -0.0006
   119 H13    *pz       -0.0005    0.0050    0.0001    0.0012   -0.0008    0.0004
   120 H14    1s        -0.0463   -0.0705   -0.0478   -0.0306   -0.0364    0.0091
   121 H14    *s         0.0175    0.0183   -0.0072   -0.0044    0.0008    0.0002
   122 H14    *px       -0.0076   -0.0057    0.0018    0.0010    0.0019   -0.0014
   123 H14    *py       -0.0038    0.0044    0.0008    0.0007    0.0006   -0.0003
   124 H14    *pz       -0.0007    0.0014   -0.0017   -0.0004   -0.0013    0.0009
   125 H15    1s         0.0404    0.3554    0.0126    0.0122   -0.0034    0.0190
   126 H15    *s        -0.0086   -0.0827   -0.0145   -0.0204    0.0124    0.0027
   127 H15    *px       -0.0058    0.0040    0.0016   -0.0015    0.0016   -0.0006
   128 H15    *py       -0.0061   -0.0044   -0.0002   -0.0006   -0.0008   -0.0006
   129 H15    *pz       -0.0009   -0.0093   -0.0000   -0.0026    0.0005   -0.0020
   130 H16    1s         0.0497   -0.0629    0.0560   -0.0247    0.0349    0.0069
   131 H16    *s        -0.0184    0.0166    0.0072   -0.0049   -0.0003   -0.0001
   132 H16    *px       -0.0052   -0.0027    0.0014   -0.0008    0.0011    0.0005
   133 H16    *py       -0.0067    0.0061    0.0018   -0.0007    0.0018    0.0012
   134 H16    *pz        0.0012    0.0013    0.0018   -0.0004    0.0012    0.0005
--
 
      Von Neumann Entropy (Root   1) =  0.86902
 

      Mulliken population analysis for root number:  1
      -----------------------------------------------
 
 
++    Molecular charges:
      ------------------
 
      Mulliken charges per centre and basis function type
      ---------------------------------------------------
 
                C1      C2      H3      H4      O1      O2      H7      C8      H9      H10     H11     C12   
      1s       2.0042  2.0039  1.2554  1.2660  2.0016  2.0004  0.9289  2.0040  1.2641  1.2651  1.2667  2.0039
      2s       1.3928  1.4506  0.0000  0.0000  1.8765  1.9159  0.0000  1.4470  0.0000  0.0000  0.0000  1.4508
      2px      1.0721  1.1641  0.0000  0.0000  1.5918  1.5816  0.0000  1.1572  0.0000  0.0000  0.0000  1.0896
      2pz      0.8918  1.1778  0.0000  0.0000  1.2291  1.0228  0.0000  1.1179  0.0000  0.0000  0.0000  1.1785
      2py      1.0581  1.1018  0.0000  0.0000  1.5046  1.7002  0.0000  1.1472  0.0000  0.0000  0.0000  1.1743
      *s      -0.1877 -0.4473 -0.3358 -0.3281  0.0227 -0.0148 -0.2571 -0.4406 -0.3315 -0.3304 -0.3251 -0.4492
      *px     -0.0721 -0.1777  0.0073  0.0209  0.0356 -0.0073  0.0314 -0.1766  0.0061  0.0210  0.0067 -0.1843
      *pz     -0.1027 -0.1802  0.0153  0.0055  0.0025  0.0301  0.0080 -0.1871  0.0047  0.0047  0.0171 -0.1838
      *py     -0.0828 -0.1824  0.0088  0.0042  0.0311  0.0285  0.0221 -0.1763  0.0199  0.0049  0.0068 -0.1758
      *d2+     0.0400  0.0181  0.0000  0.0000  0.0007  0.0008  0.0000  0.0176  0.0000  0.0000  0.0000  0.0175
      *d1+     0.0325  0.0053  0.0000  0.0000  0.0025  0.0003  0.0000  0.0083  0.0000  0.0000  0.0000  0.0098
      *d0      0.0318  0.0121  0.0000  0.0000  0.0025  0.0011  0.0000  0.0135  0.0000  0.0000  0.0000  0.0121
      *d1-     0.0378  0.0127  0.0000  0.0000  0.0031  0.0002  0.0000  0.0116  0.0000  0.0000  0.0000  0.0084
      *d2-     0.0261  0.0088  0.0000  0.0000  0.0010  0.0027  0.0000  0.0056  0.0000  0.0000  0.0000  0.0093
      Total    6.1420  5.9676  0.9510  0.9687  8.3053  8.2626  0.7333  5.9495  0.9634  0.9653  0.9722  5.9610
 
      N-E     -0.1420  0.0324  0.0490  0.0313 -0.3053 -0.2626  0.2667  0.0505  0.0366  0.0347  0.0278  0.0390
 
                H13     H14     H15     H16   
      1s       1.2655  1.2682  1.2540  1.2670
[...]
   112 C12    *d0        0.0002    0.0120   -0.0026   -0.0029   -0.0032    0.0018
   113 C12    *d1+       0.0009   -0.0086   -0.0010   -0.0004   -0.0001   -0.0016
   114 C12    *d2+      -0.0216   -0.0035    0.0018    0.0004    0.0031   -0.0015
   115 H13    1s         0.3322   -0.1301    0.0136    0.0066    0.0072   -0.0056
   116 H13    *s        -0.0620    0.0246   -0.0272    0.0037   -0.0232   -0.0048
   117 H13    *px       -0.0008   -0.0068    0.0001    0.0017   -0.0005   -0.0013
   118 H13    *py        0.0109   -0.0014    0.0003    0.0002    0.0007   -0.0004
   119 H13    *pz       -0.0000    0.0045    0.0002    0.0012   -0.0008    0.0001
   120 H14    1s        -0.0586   -0.0127   -0.0554   -0.0324   -0.0413    0.0147
   121 H14    *s         0.0213    0.0088   -0.0069   -0.0051   -0.0020    0.0014
   122 H14    *px       -0.0079   -0.0045    0.0019    0.0010    0.0020   -0.0015
   123 H14    *py       -0.0035    0.0038    0.0009    0.0008    0.0008   -0.0004
   124 H14    *pz       -0.0006    0.0029   -0.0019   -0.0004   -0.0015    0.0007
   125 H15    1s         0.0513    0.3334    0.0214    0.0148   -0.0017    0.0096
   126 H15    *s        -0.0115   -0.0754   -0.0257   -0.0156    0.0177    0.0084
   127 H15    *px       -0.0057    0.0028    0.0009   -0.0017    0.0021   -0.0000
   128 H15    *py       -0.0064   -0.0037   -0.0003   -0.0007   -0.0007   -0.0005
   129 H15    *pz       -0.0009   -0.0094   -0.0011   -0.0026    0.0007   -0.0012
   130 H16    1s         0.0583   -0.0135    0.0559   -0.0318    0.0419    0.0142
   131 H16    *s        -0.0210    0.0094    0.0068   -0.0051    0.0022    0.0014
   132 H16    *px       -0.0051   -0.0023    0.0015   -0.0010    0.0013    0.0008
   133 H16    *py       -0.0067    0.0056    0.0018   -0.0008    0.0019    0.0014
   134 H16    *pz        0.0015    0.0028    0.0017   -0.0003    0.0013    0.0006
--
 
      Von Neumann Entropy (Root   1) =  0.87309
 

      Mulliken population analysis for root number:  1
      -----------------------------------------------
 
 
++    Molecular charges:
      ------------------
 
      Mulliken charges per centre and basis function type
      ---------------------------------------------------
 
                C1      C2      H3      H4      O1      O2      H7      C8      H9      H10     H11     C12   
      1s       2.0042  2.0039  1.2546  1.2662  2.0016  2.0006  1.0622  2.0039  1.2648  1.2648  1.2634  2.0039
      2s       1.3913  1.4497  0.0000  0.0000  1.8779  1.9007  0.0000  1.4491  0.0000  0.0000  0.0000  1.4497
      2px      1.0683  1.1624  0.0000  0.0000  1.6060  1.7225  0.0000  1.1600  0.0000  0.0000  0.0000  1.0915
      2pz      0.8999  1.1765  0.0000  0.0000  1.2786  1.0210  0.0000  1.1203  0.0000  0.0000  0.0000  1.1762
      2py      1.0623  1.0995  0.0000  0.0000  1.4400  1.6201  0.0000  1.1486  0.0000  0.0000  0.0000  1.1706
      *s      -0.1893 -0.4427 -0.3361 -0.3275  0.0178 -0.0617 -0.3261 -0.4460 -0.3309 -0.3309 -0.3280 -0.4428
      *px     -0.0747 -0.1762  0.0070  0.0209  0.0323 -0.0081  0.0318 -0.1757  0.0061  0.0210  0.0069 -0.1807
      *pz     -0.1086 -0.1830  0.0161  0.0055 -0.0044  0.0099  0.0133 -0.1904  0.0048  0.0047  0.0170 -0.1826
      *py     -0.0771 -0.1788  0.0081  0.0043  0.0257 -0.0358  0.0354 -0.1759  0.0199  0.0050  0.0069 -0.1748
      *d2+     0.0390  0.0179  0.0000  0.0000  0.0007  0.0007  0.0000  0.0176  0.0000  0.0000  0.0000  0.0172
      *d1+     0.0334  0.0055  0.0000  0.0000  0.0028  0.0009  0.0000  0.0085  0.0000  0.0000  0.0000  0.0098
      *d0      0.0364  0.0123  0.0000  0.0000  0.0032  0.0009  0.0000  0.0139  0.0000  0.0000  0.0000  0.0121
      *d1-     0.0368  0.0125  0.0000  0.0000  0.0030  0.0012  0.0000  0.0115  0.0000  0.0000  0.0000  0.0085
      *d2-     0.0242  0.0085  0.0000  0.0000  0.0008  0.0036  0.0000  0.0053  0.0000  0.0000  0.0000  0.0091
      Total    6.1461  5.9681  0.9497  0.9694  8.2860  8.1766  0.8166  5.9507  0.9646  0.9646  0.9662  5.9678
 
      N-E     -0.1461  0.0319  0.0503  0.0306 -0.2860 -0.1766  0.1834  0.0493  0.0354  0.0354  0.0338  0.0322
 
                H13     H14     H15     H16   
      1s       1.2662  1.2708  1.2544  1.2708
      2s       0.0000  0.0000  0.0000  0.0000
      2px      0.0000  0.0000  0.0000  0.0000
      2pz      0.0000  0.0000  0.0000  0.0000
      2py      0.0000  0.0000  0.0000  0.0000
      *s      -0.3275 -0.3241 -0.3363 -0.3242
      *px      0.0054  0.0074  0.0061  0.0070
      *pz      0.0056  0.0159  0.0161  0.0160
      *py      0.0197  0.0075  0.0092  0.0077
      *d2+     0.0000  0.0000  0.0000  0.0000
      *d1+     0.0000  0.0000  0.0000  0.0000
      *d0      0.0000  0.0000  0.0000  0.0000
      *d1-     0.0000  0.0000  0.0000  0.0000
      *d2-     0.0000  0.0000  0.0000  0.0000
      Total    0.9693  0.9774  0.9495  0.9774
 
      N-E      0.0307  0.0226  0.0505  0.0226
 
      Total electronic charge=   50.000000
 
      Total            charge=   -0.000000
--
 
 

      Expectation values of various properties for root number:  1
      -----------------------------------------------------------
 
 
++    Molecular properties:
      ---------------------
 
      Charge (e):
                      =   -0.0000
      Dipole Moment (Debye):
      Origin of the operator (Ang)=    0.0000    0.0000    0.0000
                   X=  3.8019E-01               Y= -5.2229E-01               Z= -1.0166E+00           Total=  1.2045E+00
      Quadrupole Moment (Debye*Ang):
      Origin of the operator (Ang)=   -0.0084    0.1308    0.0828
                  XX= -3.8676E+01              XY= -3.0995E-01              XZ=  1.8505E+00              YY= -3.8810E+01
                  YZ= -1.9170E+00              ZZ= -3.4961E+01
      In traceless form (Debye*Ang)
                  XX= -1.7901E+00              XY= -4.6492E-01              XZ=  2.7757E+00              YY= -1.9921E+00
                  YZ= -2.8754E+00              ZZ=  3.7822E+00
--
 
      Von Neumann Entropy (Root   2) =  1.12853
 

      Mulliken population analysis for root number:  2
      -----------------------------------------------
 
 
++    Molecular charges:
      ------------------
 
      Mulliken charges per centre and basis function type
      ---------------------------------------------------
 
                C1      C2      H3      H4      O1      O2      H7      C8      H9      H10     H11     C12   
      1s       2.0042  2.0039  1.2547  1.2664  2.0016  2.0006  1.0612  2.0039  1.2645  1.2645  1.2669  2.0039
      2s       1.3914  1.4486  0.0000  0.0000  1.8786  1.9011  0.0000  1.4514  0.0000  0.0000  0.0000  1.4486
      2px      1.0689  1.1626  0.0000  0.0000  1.3438  1.6294  0.0000  1.1609  0.0000  0.0000  0.0000  1.0858
      2pz      0.9005  1.1767  0.0000  0.0000  1.5190  1.1730  0.0000  1.1278  0.0000  0.0000  0.0000  1.1764
      2py      1.0620  1.0935  0.0000  0.0000  1.4580  1.5659  0.0000  1.1508  0.0000  0.0000  0.0000  1.1708
      *s      -0.1894 -0.4424 -0.3360 -0.3290  0.0178 -0.0620 -0.3239 -0.4464 -0.3303 -0.3303 -0.3276 -0.4425
      *px     -0.0760 -0.1761  0.0070  0.0209  0.0234 -0.0110  0.0307 -0.1755  0.0061  0.0210  0.0070 -0.1807
      *pz     -0.1088 -0.1835  0.0161  0.0055  0.0025  0.0143  0.0148 -0.1896  0.0048  0.0047  0.0170 -0.1831
      *py     -0.0777 -0.1789  0.0081  0.0043  0.0277 -0.0376  0.0348 -0.1758  0.0199  0.0050  0.0069 -0.1747
      *d2+     0.0341  0.0179  0.0000  0.0000  0.0007  0.0007  0.0000  0.0175  0.0000  0.0000  0.0000  0.0172
      *d1+     0.0317  0.0055  0.0000  0.0000  0.0027  0.0008  0.0000  0.0086  0.0000  0.0000  0.0000  0.0098
      *d0      0.0429  0.0123  0.0000  0.0000  0.0034  0.0010  0.0000  0.0138  0.0000  0.0000  0.0000  0.0121
      *d1-     0.0369  0.0125  0.0000  0.0000  0.0030  0.0012  0.0000  0.0117  0.0000  0.0000  0.0000  0.0085
      *d2-     0.0248  0.0086  0.0000  0.0000  0.0008  0.0036  0.0000  0.0053  0.0000  0.0000  0.0000  0.0092
      Total    6.1454  5.9611  0.9499  0.9681  8.2829  8.1811  0.8176  5.9644  0.9650  0.9650  0.9702  5.9612
 
      N-E     -0.1454  0.0389  0.0501  0.0319 -0.2829 -0.1811  0.1824  0.0356  0.0350  0.0350  0.0298  0.0388
 
                H13     H14     H15     H16   
      1s       1.2664  1.2688  1.2545  1.2687
      2s       0.0000  0.0000  0.0000  0.0000
      2px      0.0000  0.0000  0.0000  0.0000
      2pz      0.0000  0.0000  0.0000  0.0000
      2py      0.0000  0.0000  0.0000  0.0000
      *s      -0.3291 -0.3242 -0.3362 -0.3243
      *px      0.0054  0.0073  0.0060  0.0070
      *pz      0.0056  0.0159  0.0161  0.0160
      *py      0.0197  0.0075  0.0092  0.0077
      *d2+     0.0000  0.0000  0.0000  0.0000
      *d1+     0.0000  0.0000  0.0000  0.0000
      *d0      0.0000  0.0000  0.0000  0.0000
      *d1-     0.0000  0.0000  0.0000  0.0000
      *d2-     0.0000  0.0000  0.0000  0.0000
      Total    0.9681  0.9753  0.9496  0.9751
 
      N-E      0.0319  0.0247  0.0504  0.0249
 
      Total electronic charge=   50.000000
 
      Total            charge=   -0.000000
--
 
 

      Expectation values of various properties for root number:  2
      -----------------------------------------------------------
 
 
++    Molecular properties:
      ---------------------
 
      Charge (e):
                      =   -0.0000
      Dipole Moment (Debye):
      Origin of the operator (Ang)=    0.0000    0.0000    0.0000
                   X=  3.1747E-01               Y= -4.3939E-01               Z= -1.0022E+00           Total=  1.1394E+00
      Quadrupole Moment (Debye*Ang):
      Origin of the operator (Ang)=   -0.0084    0.1308    0.0828
                  XX= -3.8109E+01              XY=  5.0637E-01              XZ=  2.2851E+00              YY= -3.8641E+01
                  YZ= -2.6192E+00              ZZ= -3.6043E+01
      In traceless form (Debye*Ang)
                  XX= -7.6750E-01              XY=  7.5956E-01              XZ=  3.4277E+00              YY= -1.5644E+00
                  YZ= -3.9288E+00              ZZ=  2.3320E+00
--
 
      Von Neumann Entropy (Root   3) =  1.13964
 

      Mulliken population analysis for root number:  3
      -----------------------------------------------
 
 
++    Molecular charges:
      ------------------
 
      Mulliken charges per centre and basis function type
      ---------------------------------------------------
 
                C1      C2      H3      H4      O1      O2      H7      C8      H9      H10     H11     C12   
      1s       2.0042  2.0039  1.2547  1.2663  2.0016  2.0006  1.0615  2.0039  1.2647  1.2647  1.2645  2.0039
      2s       1.3914  1.4494  0.0000  0.0000  1.8790  1.9010  0.0000  1.4498  0.0000  0.0000  0.0000  1.4494
      2px      1.0685  1.1624  0.0000  0.0000  1.5496  1.2796  0.0000  1.1602  0.0000  0.0000  0.0000  1.0907
      2pz      0.9014  1.1766  0.0000  0.0000  1.3391  1.7178  0.0000  1.1224  0.0000  0.0000  0.0000  1.1763
      2py      1.0623  1.0986  0.0000  0.0000  1.4419  1.3612  0.0000  1.1492  0.0000  0.0000  0.0000  1.1706
      *s      -0.1893 -0.4426 -0.3372 -0.3279  0.0173 -0.0619 -0.3235 -0.4461 -0.3307 -0.3307 -0.3278 -0.4427
      *px     -0.0745 -0.1762  0.0070  0.0209  0.0299 -0.0230  0.0266 -0.1756  0.0061  0.0210  0.0069 -0.1808
      *pz     -0.1085 -0.1831  0.0161  0.0055 -0.0033  0.0312  0.0206 -0.1903  0.0048  0.0047  0.0170 -0.1828
      *py     -0.0770 -0.1790  0.0081  0.0043  0.0256 -0.0448  0.0322 -0.1759  0.0199  0.0050  0.0069 -0.1748
      *d2+     0.0380  0.0179  0.0000  0.0000  0.0007  0.0005  0.0000  0.0176  0.0000  0.0000  0.0000  0.0172
      *d1+     0.0331  0.0055  0.0000  0.0000  0.0028  0.0009  0.0000  0.0085  0.0000  0.0000  0.0000  0.0098
      *d0      0.0378  0.0123  0.0000  0.0000  0.0034  0.0011  0.0000  0.0139  0.0000  0.0000  0.0000  0.0121
      *d1-     0.0370  0.0125  0.0000  0.0000  0.0031  0.0012  0.0000  0.0116  0.0000  0.0000  0.0000  0.0085
      *d2-     0.0244  0.0085  0.0000  0.0000  0.0007  0.0036  0.0000  0.0053  0.0000  0.0000  0.0000  0.0091
      Total    6.1487  5.9668  0.9488  0.9691  8.2912  8.1690  0.8174  5.9545  0.9647  0.9647  0.9674  5.9665
 
      N-E     -0.1487  0.0332  0.0512  0.0309 -0.2912 -0.1690  0.1826  0.0455  0.0353  0.0353  0.0326  0.0335
 
                H13     H14     H15     H16   
      1s       1.2663  1.2702  1.2546  1.2702
      2s       0.0000  0.0000  0.0000  0.0000
      2px      0.0000  0.0000  0.0000  0.0000
      2pz      0.0000  0.0000  0.0000  0.0000
      2py      0.0000  0.0000  0.0000  0.0000
      *s      -0.3279 -0.3242 -0.3373 -0.3242
      *px      0.0054  0.0074  0.0061  0.0070
      *pz      0.0056  0.0159  0.0161  0.0160
      *py      0.0197  0.0075  0.0092  0.0077
      *d2+     0.0000  0.0000  0.0000  0.0000
      *d1+     0.0000  0.0000  0.0000  0.0000
      *d0      0.0000  0.0000  0.0000  0.0000
      *d1-     0.0000  0.0000  0.0000  0.0000
      *d2-     0.0000  0.0000  0.0000  0.0000
      Total    0.9690  0.9768  0.9486  0.9767
 
      N-E      0.0310  0.0232  0.0514  0.0233
 
      Total electronic charge=   50.000000
 
      Total            charge=   -0.000000
--
 
 

      Expectation values of various properties for root number:  3
      -----------------------------------------------------------
 
 
++    Molecular properties:
      ---------------------
 
      Charge (e):
                      =   -0.0000
      Dipole Moment (Debye):
      Origin of the operator (Ang)=    0.0000    0.0000    0.0000
                   X=  3.3989E-01               Y= -4.6580E-01               Z= -9.3651E-01           Total=  1.0998E+00
      Quadrupole Moment (Debye*Ang):
      Origin of the operator (Ang)=   -0.0084    0.1308    0.0828
                  XX= -3.8065E+01              XY=  3.5855E-01              XZ=  2.0948E+00              YY= -3.8505E+01
                  YZ= -2.3762E+00              ZZ= -3.5970E+01
      In traceless form (Debye*Ang)
                  XX= -8.2757E-01              XY=  5.3782E-01              XZ=  3.1423E+00              YY= -1.4878E+00
                  YZ= -3.5643E+00              ZZ=  2.3154E+00
--
 
      Von Neumann Entropy (Root   4) =  0.99194
 

      Mulliken population analysis for root number:  4
      -----------------------------------------------
 
 
++    Molecular charges:
      ------------------
 
      Mulliken charges per centre and basis function type
      ---------------------------------------------------
 
                C1      C2      H3      H4      O1      O2      H7      C8      H9      H10     H11     C12   
      1s       2.0042  2.0039  1.2548  1.2665  2.0016  2.0006  1.0607  2.0039  1.2644  1.2644  1.2679  2.0039
      2s       1.3914  1.4483  0.0000  0.0000  1.8795  1.9013  0.0000  1.4519  0.0000  0.0000  0.0000  1.4484
      2px      1.0690  1.1626  0.0000  0.0000  1.2900  1.1861  0.0000  1.1612  0.0000  0.0000  0.0000  1.0848
      2pz      0.9015  1.1767  0.0000  0.0000  1.5740  1.8711  0.0000  1.1296  0.0000  0.0000  0.0000  1.1764
      2py      1.0619  1.0924  0.0000  0.0000  1.4636  1.3070  0.0000  1.1513  0.0000  0.0000  0.0000  1.1708
      *s      -0.1893 -0.4423 -0.3369 -0.3294  0.0173 -0.0622 -0.3220 -0.4464 -0.3301 -0.3301 -0.3275 -0.4425
      *px     -0.0760 -0.1761  0.0070  0.0209  0.0211 -0.0257  0.0256 -0.1755  0.0061  0.0211  0.0070 -0.1808
      *pz     -0.1087 -0.1836  0.0161  0.0055  0.0038  0.0349  0.0222 -0.1895  0.0048  0.0047  0.0170 -0.1832
      *py     -0.0776 -0.1790  0.0081  0.0043  0.0276 -0.0466  0.0316 -0.1758  0.0199  0.0050  0.0069 -0.1747
      *d2+     0.0330  0.0179  0.0000  0.0000  0.0007  0.0004  0.0000  0.0175  0.0000  0.0000  0.0000  0.0171
      *d1+     0.0314  0.0054  0.0000  0.0000  0.0027  0.0009  0.0000  0.0086  0.0000  0.0000  0.0000  0.0098
      *d0      0.0444  0.0123  0.0000  0.0000  0.0035  0.0012  0.0000  0.0138  0.0000  0.0000  0.0000  0.0121
      *d1-     0.0369  0.0124  0.0000  0.0000  0.0030  0.0012  0.0000  0.0117  0.0000  0.0000  0.0000  0.0084
      *d2-     0.0249  0.0086  0.0000  0.0000  0.0008  0.0037  0.0000  0.0053  0.0000  0.0000  0.0000  0.0092
      Total    6.1471  5.9597  0.9491  0.9679  8.2892  8.1738  0.8181  5.9678  0.9651  0.9651  0.9712  5.9598
 
      N-E     -0.1471  0.0403  0.0509  0.0321 -0.2892 -0.1738  0.1819  0.0322  0.0349  0.0349  0.0288  0.0402
 
                H13     H14     H15     H16   
      1s       1.2665  1.2684  1.2546  1.2683
      2s       0.0000  0.0000  0.0000  0.0000
      2px      0.0000  0.0000  0.0000  0.0000
      2pz      0.0000  0.0000  0.0000  0.0000
      2py      0.0000  0.0000  0.0000  0.0000
      *s      -0.3294 -0.3243 -0.3370 -0.3243
      *px      0.0054  0.0073  0.0060  0.0070
      *pz      0.0056  0.0159  0.0161  0.0160
      *py      0.0197  0.0075  0.0092  0.0077
      *d2+     0.0000  0.0000  0.0000  0.0000
      *d1+     0.0000  0.0000  0.0000  0.0000
      *d0      0.0000  0.0000  0.0000  0.0000
      *d1-     0.0000  0.0000  0.0000  0.0000
      *d2-     0.0000  0.0000  0.0000  0.0000
      Total    0.9678  0.9748  0.9489  0.9747
 
      N-E      0.0322  0.0252  0.0511  0.0253
 
      Total electronic charge=   50.000000
 
      Total            charge=   -0.000000
--
 
 

      Expectation values of various properties for root number:  4
      -----------------------------------------------------------
 
 
++    Molecular properties:
      ---------------------
 
      Charge (e):
                      =   -0.0000
      Dipole Moment (Debye):
      Origin of the operator (Ang)=    0.0000    0.0000    0.0000
                   X=  2.7774E-01               Y= -3.8411E-01               Z= -9.2922E-01           Total=  1.0431E+00
      Quadrupole Moment (Debye*Ang):
      Origin of the operator (Ang)=   -0.0084    0.1308    0.0828
                  XX= -3.7514E+01              XY=  1.1645E+00              XZ=  2.4893E+00              YY= -3.8341E+01
                  YZ= -3.0222E+00              ZZ= -3.6962E+01
      In traceless form (Debye*Ang)
                  XX=  1.3725E-01              XY=  1.7467E+00              XZ=  3.7339E+00              YY= -1.1026E+00
                  YZ= -4.5334E+00              ZZ=  9.6536E-01
--
 
 
      Input file to MOLDEN was generated!
 
 
      Input file to MOLDEN was generated!
 
 
      Input file to MOLDEN was generated!
 
 
      Input file to MOLDEN was generated!
 
 
      Input file to MOLDEN was generated!
 
      Average orbitals are written to the RASORB file
      Natural orbitals for root   1 are written to the RASORB.1 file
      Natural orbitals for root   2 are written to the RASORB.2 file
      Natural orbitals for root   3 are written to the RASORB.3 file
      Natural orbitals for root   4 are written to the RASORB.4 file
      Spin density orbitals for root   1 are written to the SPDORB.1 file
      Spin density orbitals for root   2 are written to the SPDORB.2 file
      Spin density orbitals for root   3 are written to the SPDORB.3 file
      Spin density orbitals for root   4 are written to the SPDORB.4 file
 
--- Stop Module: last_energy at Wed Jul  8 13:20:11 2026 /rc=_RC_ALL_IS_WELL_ ---
*** files: relaxed_scan_tbhp_casscf.rasscf.molden relaxed_scan_tbhp_casscf.rasscf.molden.1 relaxed_scan_tbhp_casscf.rasscf.molden.2 relaxed_scan_tbhp_casscf.rasscf.molden.3
           relaxed_scan_tbhp_casscf.rasscf.molden.4 relaxed_scan_tbhp_casscf.RasOrb relaxed_scan_tbhp_casscf.RasOrb.1 relaxed_scan_tbhp_casscf.RasOrb.2
           relaxed_scan_tbhp_casscf.RasOrb.3 relaxed_scan_tbhp_casscf.RasOrb.4 relaxed_scan_tbhp_casscf.SpdOrb.1 relaxed_scan_tbhp_casscf.SpdOrb.2 relaxed_scan_tbhp_casscf.SpdOrb.3
           relaxed_scan_tbhp_casscf.SpdOrb.4 xmldump
    saved to directory /vscratch/grp-cyberwksp21/hclifford/openmolcas/PES/runs_relaxed_s1/R_2p20
--- Module last_energy spent 33 seconds ---

>>> END DO

.##################.
.# Happy landing! #.
.##################.

    Timing: Wall=1490.37 User=1168.96 System=234.90
